
     Program BANDS v.7.1 starts on 23May2023 at 10:28: 2 

     This program is part of the open-source Quantum ESPRESSO suite
     for quantum simulation of materials; please cite
         "P. Giannozzi et al., J. Phys.:Condens. Matter 21 395502 (2009);
         "P. Giannozzi et al., J. Phys.:Condens. Matter 29 465901 (2017);
         "P. Giannozzi et al., J. Chem. Phys. 152 154105 (2020);
          URL http://www.quantum-espresso.org", 
     in publications or presentations arising from this work. More details at
     http://www.quantum-espresso.org/quote

     Parallel version (MPI & OpenMP), running on      60 processor cores
     Number of MPI processes:                30
     Threads/MPI process:                     2

     MPI processes distributed on     5 nodes
     R & G space division:  proc/nbgrp/npool/nimage =      30
     2483 MiB available memory on the printing compute node when the environment starts


     Reading xml data from directory:

     ../out/m2.save/
     file Bi.pbe-dn-rrkjus_psl.1.0.0.UPF: wavefunction(s)  5D renormalized
     file Mg.pbe-spnl-rrkjus_psl.1.0.0.UPF: wavefunction(s)  2P renormalized

     IMPORTANT: XC functional enforced from input :
     Exchange-correlation= PBE
                           (   1   4   3   4   0   0   0)
     Any further DFT definition will be discarded
     Please, verify this is what you really want


     Parallelization info
     --------------------
     sticks:   dense  smooth     PW     G-vecs:    dense   smooth      PW
     Min          64      32      9                 3684     1303     201
     Max          65      34     10                 3695     1308     206
     Sum        1945     967    283               110773    39149    6099

     Using Slab Decomposition


     Check: negative core charge=   -0.000010
     Reading collected, re-writing distributed wavefunctions
     high-symmetry point:  0.0000 0.0000 0.0000   x coordinate   0.0000
     high-symmetry point: -0.5000-0.2887 0.0000   x coordinate   0.5774
     high-symmetry point: -0.6666 0.0000 0.0000   x coordinate   0.9107
     high-symmetry point:  0.0000 0.0000 0.0000   x coordinate   1.5773
     high-symmetry point:  0.0000 0.0000-0.3164   x coordinate   1.8937
     high-symmetry point: -0.5000-0.2887-0.3164   x coordinate   2.4711
     high-symmetry point: -0.6666 0.0000-0.3164   x coordinate   2.8044

     Plottable bands (eV) written to file Mg3Bi2.bands.gnu
     Bands written to file Mg3Bi2.bands

 **************************************************************************

                    xk=(   0.00000,   0.00000,   0.00000  )

     point group D_3d (-3m) 
     there are  6 classes
     the character table:

       E     2C3   3C2'  i     2S6   3s_d 
A_1g   1.00  1.00  1.00  1.00  1.00  1.00
A_2g   1.00  1.00 -1.00  1.00  1.00 -1.00
E_g    2.00 -1.00  0.00  2.00 -1.00  0.00
A_1u   1.00  1.00  1.00 -1.00 -1.00 -1.00
A_2u   1.00  1.00 -1.00 -1.00 -1.00  1.00
E_u    2.00 -1.00  0.00 -2.00  1.00  0.00

     the symmetry operations in each class and the name of the first element:

     E        1
                                                                 
     2C3      3    4
                                                                 
     3C2'     2    5    6
                                                                 
     i        7
                                                                 
     2S6      9   10
                                                                 
     3s_d     8   11   12
                                                                 

     Band symmetry, D_3d (-3m)  point group:

     e(  1 -  1) =    -69.75946  eV     1   --> A_1g L_1       
     e(  2 -  2) =    -69.16054  eV     1   --> A_1g L_1       
     e(  3 -  3) =    -69.15964  eV     1   --> A_2u L_2'      
     e(  4 -  4) =    -36.51099  eV     1   --> A_2u L_2'      
     e(  5 -  6) =    -36.50742  eV     2   --> E_u  L_3'      
     e(  7 -  8) =    -35.91354  eV     2   --> E_g  L_3       
     e(  9 - 10) =    -35.91047  eV     2   --> E_u  L_3'      
     e( 11 - 11) =    -35.90919  eV     1   --> A_1g L_1       
     e( 12 - 12) =    -35.90885  eV     1   --> A_2u L_2'      
     e( 13 - 14) =    -14.72746  eV     2   --> E_u  L_3'      
     e( 15 - 16) =    -14.72695  eV     2   --> E_g  L_3       
     e( 17 - 17) =    -14.71739  eV     1   --> A_2u L_2'      
     e( 18 - 18) =    -14.71637  eV     1   --> A_1g L_1       
     e( 19 - 20) =    -14.69804  eV     2   --> E_g  L_3       
     e( 21 - 22) =    -14.68808  eV     2   --> E_u  L_3'      
     e( 23 - 23) =     -3.96910  eV     1   --> A_1g L_1       
     e( 24 - 24) =     -3.08995  eV     1   --> A_2u L_2'      
     e( 25 - 25) =      2.63055  eV     1   --> A_1g L_1       
     e( 26 - 27) =      6.45651  eV     2   --> E_g  L_3       
     e( 28 - 29) =      7.15891  eV     2   --> E_u  L_3'      
     e( 30 - 30) =      7.20989  eV     1   --> A_1g L_1       
     e( 31 - 31) =      7.40851  eV     1   --> A_2u L_2'      
     e( 32 - 32) =      8.22383  eV     1   --> A_2u L_2'      
     e( 33 - 34) =     10.51919  eV     2   --> E_u  L_3'      
     e( 35 - 35) =     11.21666  eV     1   --> A_1g L_1       
     e( 36 - 37) =     11.43511  eV     2   --> E_g  L_3       
     e( 38 - 38) =     11.84839  eV     1   --> A_1g L_1       
     e( 39 - 40) =     12.55833  eV     2   --> E_g  L_3       

 **************************************************************************

 **************************************************************************

                    xk=(  -0.01000,  -0.00577,   0.00000  )

     point group C_s (m)    
     there are  2 classes
     the character table:

       E     s    
A'     1.00  1.00
A''    1.00 -1.00

     the symmetry operations in each class and the name of the first element:

     E        1
                                                                 
     s        2
                                                                 

     Band symmetry, C_s (m)     point group:

     e(  1 -  1) =    -69.75946  eV     1   --> A'             
     e(  2 -  2) =    -69.16054  eV     1   --> A'             
     e(  3 -  3) =    -69.15964  eV     1   --> A'             
     e(  4 -  4) =    -36.51099  eV     1   --> A'             
     e(  5 -  6) =    -36.50741  eV     2   --> A'             
     e(  5 -  6) =    -36.50741  eV     2   --> A''            
     e(  7 -  8) =    -35.91354  eV     2   --> A'             
     e(  7 -  8) =    -35.91354  eV     2   --> A''            
     e(  9 - 10) =    -35.91047  eV     2   --> A'             
     e(  9 - 10) =    -35.91047  eV     2   --> A''            
     e( 11 - 11) =    -35.90918  eV     1   --> A'             
     e( 12 - 12) =    -35.90885  eV     1   --> A'             
     e( 13 - 14) =    -14.72747  eV     2   --> A'             
     e( 13 - 14) =    -14.72747  eV     2   --> A''            
     e( 15 - 16) =    -14.72694  eV     2   --> A'             
     e( 15 - 16) =    -14.72694  eV     2   --> A''            
     e( 17 - 17) =    -14.71739  eV     1   --> A'             
     e( 18 - 18) =    -14.71637  eV     1   --> A'             
     e( 19 - 20) =    -14.69804  eV     2   --> A'             
     e( 19 - 20) =    -14.69804  eV     2   --> A''            
     e( 21 - 22) =    -14.68808  eV     2   --> A'             
     e( 21 - 22) =    -14.68808  eV     2   --> A''            
     e( 23 - 23) =     -3.96857  eV     1   --> A'             
     e( 24 - 24) =     -3.08970  eV     1   --> A'             
     e( 25 - 25) =      2.63140  eV     1   --> A'             
     e( 26 - 26) =      6.44551  eV     1   --> A'             
     e( 27 - 27) =      6.45398  eV     1   --> A''            
     e( 28 - 28) =      7.06533  eV     1   --> A'             
     e( 29 - 29) =      7.15947  eV     1   --> A''            
     e( 30 - 30) =      7.30450  eV     1   --> A'             
     e( 31 - 31) =      7.40978  eV     1   --> A'             
     e( 32 - 32) =      8.23167  eV     1   --> A'             
     e( 33 - 33) =     10.50913  eV     1   --> A'             
     e( 34 - 34) =     10.52044  eV     1   --> A''            
     e( 35 - 35) =     11.22115  eV     1   --> A'             
     e( 36 - 36) =     11.42649  eV     1   --> A'             
     e( 37 - 37) =     11.43518  eV     1   --> A''            
     e( 38 - 38) =     11.85614  eV     1   --> A'             
     e( 39 - 39) =     12.52428  eV     1   --> A'             
     e( 40 - 40) =     12.53560  eV     1   --> A''            

 **************************************************************************

 **************************************************************************

                    xk=(  -0.02000,  -0.01155,   0.00000  )

     Band symmetry, C_s (m)     point group:

     e(  1 -  1) =    -69.75943  eV     1   --> A'             
     e(  2 -  2) =    -69.16052  eV     1   --> A'             
     e(  3 -  3) =    -69.15960  eV     1   --> A'             
     e(  4 -  4) =    -36.51070  eV     1   --> A'             
     e(  5 -  5) =    -36.50723  eV     1   --> A''            
     e(  6 -  6) =    -36.50683  eV     1   --> A'             
     e(  7 -  7) =    -35.91333  eV     1   --> A''            
     e(  8 -  8) =    -35.91275  eV     1   --> A'             
     e(  9 -  9) =    -35.91031  eV     1   --> A''            
     e( 10 - 10) =    -35.91020  eV     1   --> A'             
     e( 11 - 11) =    -35.90885  eV     1   --> A'             
     e( 12 - 12) =    -35.90852  eV     1   --> A'             
     e( 13 - 14) =    -14.72749  eV     2   --> A'             
     e( 13 - 14) =    -14.72749  eV     2   --> A''            
     e( 15 - 16) =    -14.72689  eV     2   --> A'             
     e( 15 - 16) =    -14.72689  eV     2   --> A''            
     e( 17 - 17) =    -14.71737  eV     1   --> A'             
     e( 18 - 18) =    -14.71635  eV     1   --> A'             
     e( 19 - 20) =    -14.69802  eV     2   --> A'             
     e( 19 - 20) =    -14.69802  eV     2   --> A''            
     e( 21 - 22) =    -14.68806  eV     2   --> A'             
     e( 21 - 22) =    -14.68806  eV     2   --> A''            
     e( 23 - 23) =     -3.96688  eV     1   --> A'             
     e( 24 - 24) =     -3.08891  eV     1   --> A'             
     e( 25 - 25) =      2.63397  eV     1   --> A'             
     e( 26 - 26) =      6.41330  eV     1   --> A'             
     e( 27 - 27) =      6.44650  eV     1   --> A''            
     e( 28 - 28) =      6.95233  eV     1   --> A'             
     e( 29 - 29) =      7.16112  eV     1   --> A''            
     e( 30 - 30) =      7.41224  eV     1   --> A'             
     e( 31 - 31) =      7.42252  eV     1   --> A'             
     e( 32 - 32) =      8.25536  eV     1   --> A'             
     e( 33 - 33) =     10.47979  eV     1   --> A'             
     e( 34 - 34) =     10.52422  eV     1   --> A''            
     e( 35 - 35) =     11.23389  eV     1   --> A'             
     e( 36 - 36) =     11.40187  eV     1   --> A'             
     e( 37 - 37) =     11.43542  eV     1   --> A''            
     e( 38 - 38) =     11.87939  eV     1   --> A'             
     e( 39 - 39) =     12.46085  eV     1   --> A'             
     e( 40 - 40) =     12.49856  eV     1   --> A''            

 **************************************************************************

 **************************************************************************

                    xk=(  -0.03000,  -0.01732,   0.00000  )

     Band symmetry, C_s (m)     point group:

     e(  1 -  1) =    -69.75942  eV     1   --> A'             
     e(  2 -  2) =    -69.16051  eV     1   --> A'             
     e(  3 -  3) =    -69.15960  eV     1   --> A'             
     e(  4 -  4) =    -36.51037  eV     1   --> A'             
     e(  5 -  6) =    -36.50708  eV     2   --> A'             
     e(  5 -  6) =    -36.50708  eV     2   --> A''            
     e(  7 -  8) =    -35.91314  eV     2   --> A'             
     e(  7 -  8) =    -35.91314  eV     2   --> A''            
     e(  9 -  9) =    -35.91022  eV     1   --> A''            
     e( 10 - 10) =    -35.91008  eV     1   --> A'             
     e( 11 - 11) =    -35.90860  eV     1   --> A'             
     e( 12 - 12) =    -35.90817  eV     1   --> A'             
     e( 13 - 14) =    -14.72756  eV     2   --> A'             
     e( 13 - 14) =    -14.72756  eV     2   --> A''            
     e( 15 - 16) =    -14.72684  eV     2   --> A'             
     e( 15 - 16) =    -14.72684  eV     2   --> A''            
     e( 17 - 17) =    -14.71736  eV     1   --> A'             
     e( 18 - 18) =    -14.71634  eV     1   --> A'             
     e( 19 - 20) =    -14.69801  eV     2   --> A'             
     e( 19 - 20) =    -14.69801  eV     2   --> A''            
     e( 21 - 22) =    -14.68807  eV     2   --> A'             
     e( 21 - 22) =    -14.68807  eV     2   --> A''            
     e( 23 - 23) =     -3.96415  eV     1   --> A'             
     e( 24 - 24) =     -3.08763  eV     1   --> A'             
     e( 25 - 25) =      2.63814  eV     1   --> A'             
     e( 26 - 26) =      6.36159  eV     1   --> A'             
     e( 27 - 27) =      6.43426  eV     1   --> A''            
     e( 28 - 28) =      6.84077  eV     1   --> A'             
     e( 29 - 29) =      7.16365  eV     1   --> A''            
     e( 30 - 30) =      7.41711  eV     1   --> A'             
     e( 31 - 31) =      7.53911  eV     1   --> A'             
     e( 32 - 32) =      8.29317  eV     1   --> A'             
     e( 33 - 33) =     10.43482  eV     1   --> A'             
     e( 34 - 34) =     10.53044  eV     1   --> A''            
     e( 35 - 35) =     11.25259  eV     1   --> A'             
     e( 36 - 36) =     11.36272  eV     1   --> A'             
     e( 37 - 37) =     11.43534  eV     1   --> A''            
     e( 38 - 38) =     11.91429  eV     1   --> A'             
     e( 39 - 39) =     12.38955  eV     1   --> A'             
     e( 40 - 40) =     12.46454  eV     1   --> A''            

 **************************************************************************

 **************************************************************************

                    xk=(  -0.04000,  -0.02309,   0.00000  )

     Band symmetry, C_s (m)     point group:

     e(  1 -  1) =    -69.75941  eV     1   --> A'             
     e(  2 -  2) =    -69.16049  eV     1   --> A'             
     e(  3 -  3) =    -69.15960  eV     1   --> A'             
     e(  4 -  4) =    -36.51012  eV     1   --> A'             
     e(  5 -  6) =    -36.50694  eV     2   --> A'             
     e(  5 -  6) =    -36.50694  eV     2   --> A''            
     e(  7 -  7) =    -35.91320  eV     1   --> A''            
     e(  8 -  8) =    -35.91303  eV     1   --> A'             
     e(  9 -  9) =    -35.91001  eV     1   --> A'             
     e( 10 - 10) =    -35.90987  eV     1   --> A''            
     e( 11 - 11) =    -35.90839  eV     1   --> A'             
     e( 12 - 12) =    -35.90787  eV     1   --> A'             
     e( 13 - 13) =    -14.72763  eV     1   --> A'             
     e( 14 - 14) =    -14.72751  eV     1   --> A''            
     e( 15 - 16) =    -14.72679  eV     2   --> A'             
     e( 15 - 16) =    -14.72679  eV     2   --> A''            
     e( 17 - 17) =    -14.71734  eV     1   --> A'             
     e( 18 - 18) =    -14.71631  eV     1   --> A'             
     e( 19 - 20) =    -14.69800  eV     2   --> A'             
     e( 19 - 20) =    -14.69800  eV     2   --> A''            
     e( 21 - 21) =    -14.68809  eV     1   --> A'             
     e( 22 - 22) =    -14.68799  eV     1   --> A''            
     e( 23 - 23) =     -3.96044  eV     1   --> A'             
     e( 24 - 24) =     -3.08584  eV     1   --> A'             
     e( 25 - 25) =      2.64433  eV     1   --> A'             
     e( 26 - 26) =      6.29341  eV     1   --> A'             
     e( 27 - 27) =      6.41755  eV     1   --> A''            
     e( 28 - 28) =      6.73173  eV     1   --> A'             
     e( 29 - 29) =      7.16673  eV     1   --> A''            
     e( 30 - 30) =      7.42051  eV     1   --> A'             
     e( 31 - 31) =      7.65501  eV     1   --> A'             
     e( 32 - 32) =      8.34434  eV     1   --> A'             
     e( 33 - 33) =     10.37930  eV     1   --> A'             
     e( 34 - 34) =     10.53947  eV     1   --> A''            
     e( 35 - 35) =     11.27465  eV     1   --> A'             
     e( 36 - 36) =     11.31407  eV     1   --> A'             
     e( 37 - 37) =     11.43436  eV     1   --> A''            
     e( 38 - 38) =     11.95491  eV     1   --> A'             
     e( 39 - 39) =     12.32055  eV     1   --> A'             
     e( 40 - 40) =     12.43706  eV     1   --> A''            

 **************************************************************************

 **************************************************************************

                    xk=(  -0.05000,  -0.02887,   0.00000  )

     Band symmetry, C_s (m)     point group:

     e(  1 -  1) =    -69.75939  eV     1   --> A'             
     e(  2 -  2) =    -69.16046  eV     1   --> A'             
     e(  3 -  3) =    -69.15958  eV     1   --> A'             
     e(  4 -  4) =    -36.50982  eV     1   --> A'             
     e(  5 -  5) =    -36.50685  eV     1   --> A'             
     e(  6 -  6) =    -36.50646  eV     1   --> A''            
     e(  7 -  7) =    -35.91298  eV     1   --> A'             
     e(  8 -  8) =    -35.91270  eV     1   --> A''            
     e(  9 -  9) =    -35.90998  eV     1   --> A'             
     e( 10 - 10) =    -35.90942  eV     1   --> A''            
     e( 11 - 11) =    -35.90822  eV     1   --> A'             
     e( 12 - 12) =    -35.90747  eV     1   --> A'             
     e( 13 - 13) =    -14.72772  eV     1   --> A'             
     e( 14 - 14) =    -14.72754  eV     1   --> A''            
     e( 15 - 16) =    -14.72671  eV     2   --> A'             
     e( 15 - 16) =    -14.72671  eV     2   --> A''            
     e( 17 - 17) =    -14.71731  eV     1   --> A'             
     e( 18 - 18) =    -14.71628  eV     1   --> A'             
     e( 19 - 20) =    -14.69796  eV     2   --> A'             
     e( 19 - 20) =    -14.69796  eV     2   --> A''            
     e( 21 - 21) =    -14.68812  eV     1   --> A'             
     e( 22 - 22) =    -14.68795  eV     1   --> A''            
     e( 23 - 23) =     -3.95564  eV     1   --> A'             
     e( 24 - 24) =     -3.08352  eV     1   --> A'             
     e( 25 - 25) =      2.65230  eV     1   --> A'             
     e( 26 - 26) =      6.21179  eV     1   --> A'             
     e( 27 - 27) =      6.39692  eV     1   --> A''            
     e( 28 - 28) =      6.62541  eV     1   --> A'             
     e( 29 - 29) =      7.17007  eV     1   --> A''            
     e( 30 - 30) =      7.42201  eV     1   --> A'             
     e( 31 - 31) =      7.76951  eV     1   --> A'             
     e( 32 - 32) =      8.40737  eV     1   --> A'             
     e( 33 - 33) =     10.31632  eV     1   --> A'             
     e( 34 - 34) =     10.55110  eV     1   --> A''            
     e( 35 - 35) =     11.25445  eV     1   --> A'             
     e( 36 - 36) =     11.30310  eV     1   --> A'             
     e( 37 - 37) =     11.43253  eV     1   --> A''            
     e( 38 - 38) =     11.98488  eV     1   --> A'             
     e( 39 - 39) =     12.26975  eV     1   --> A'             
     e( 40 - 40) =     12.41785  eV     1   --> A''            

 **************************************************************************

 **************************************************************************

                    xk=(  -0.06000,  -0.03464,   0.00000  )

     Band symmetry, C_s (m)     point group:

     e(  1 -  1) =    -69.75940  eV     1   --> A'             
     e(  2 -  2) =    -69.16045  eV     1   --> A'             
     e(  3 -  3) =    -69.15960  eV     1   --> A'             
     e(  4 -  4) =    -36.50996  eV     1   --> A'             
     e(  5 -  5) =    -36.50685  eV     1   --> A'             
     e(  6 -  6) =    -36.50674  eV     1   --> A''            
     e(  7 -  7) =    -35.91323  eV     1   --> A''            
     e(  8 -  8) =    -35.91311  eV     1   --> A'             
     e(  9 -  9) =    -35.90989  eV     1   --> A'             
     e( 10 - 10) =    -35.90945  eV     1   --> A''            
     e( 11 - 11) =    -35.90842  eV     1   --> A'             
     e( 12 - 12) =    -35.90750  eV     1   --> A'             
     e( 13 - 13) =    -14.72782  eV     1   --> A'             
     e( 14 - 14) =    -14.72759  eV     1   --> A''            
     e( 15 - 15) =    -14.72668  eV     1   --> A'             
     e( 16 - 16) =    -14.72654  eV     1   --> A''            
     e( 17 - 17) =    -14.71727  eV     1   --> A'             
     e( 18 - 18) =    -14.71624  eV     1   --> A'             
     e( 19 - 20) =    -14.69795  eV     2   --> A'             
     e( 19 - 20) =    -14.69795  eV     2   --> A''            
     e( 21 - 21) =    -14.68816  eV     1   --> A'             
     e( 22 - 22) =    -14.68794  eV     1   --> A''            
     e( 23 - 23) =     -3.94986  eV     1   --> A'             
     e( 24 - 24) =     -3.08076  eV     1   --> A'             
     e( 25 - 25) =      2.66160  eV     1   --> A'             
     e( 26 - 26) =      6.11935  eV     1   --> A'             
     e( 27 - 27) =      6.37259  eV     1   --> A''            
     e( 28 - 28) =      6.52160  eV     1   --> A'             
     e( 29 - 29) =      7.17318  eV     1   --> A''            
     e( 30 - 30) =      7.42076  eV     1   --> A'             
     e( 31 - 31) =      7.88147  eV     1   --> A'             
     e( 32 - 32) =      8.47889  eV     1   --> A'             
     e( 33 - 33) =     10.24906  eV     1   --> A'             
     e( 34 - 34) =     10.56484  eV     1   --> A''            
     e( 35 - 35) =     11.19297  eV     1   --> A'             
     e( 36 - 36) =     11.33005  eV     1   --> A'             
     e( 37 - 37) =     11.42833  eV     1   --> A''            
     e( 38 - 38) =     11.97760  eV     1   --> A'             
     e( 39 - 39) =     12.26212  eV     1   --> A'             
     e( 40 - 40) =     12.40755  eV     1   --> A''            

 **************************************************************************

 **************************************************************************

                    xk=(  -0.07000,  -0.04041,   0.00000  )

     Band symmetry, C_s (m)     point group:

     e(  1 -  1) =    -69.75942  eV     1   --> A'             
     e(  2 -  2) =    -69.16047  eV     1   --> A'             
     e(  3 -  3) =    -69.15963  eV     1   --> A'             
     e(  4 -  4) =    -36.51024  eV     1   --> A'             
     e(  5 -  5) =    -36.50723  eV     1   --> A'             
     e(  6 -  6) =    -36.50705  eV     1   --> A''            
     e(  7 -  8) =    -35.91352  eV     2   --> A'             
     e(  7 -  8) =    -35.91352  eV     2   --> A''            
     e(  9 -  9) =    -35.91032  eV     1   --> A'             
     e( 10 - 10) =    -35.90977  eV     1   --> A''            
     e( 11 - 11) =    -35.90876  eV     1   --> A'             
     e( 12 - 12) =    -35.90762  eV     1   --> A'             
     e( 13 - 13) =    -14.72793  eV     1   --> A'             
     e( 14 - 14) =    -14.72763  eV     1   --> A''            
     e( 15 - 15) =    -14.72664  eV     1   --> A'             
     e( 16 - 16) =    -14.72646  eV     1   --> A''            
     e( 17 - 17) =    -14.71724  eV     1   --> A'             
     e( 18 - 18) =    -14.71622  eV     1   --> A'             
     e( 19 - 20) =    -14.69794  eV     2   --> A'             
     e( 19 - 20) =    -14.69794  eV     2   --> A''            
     e( 21 - 21) =    -14.68821  eV     1   --> A'             
     e( 22 - 22) =    -14.68791  eV     1   --> A''            
     e( 23 - 23) =     -3.94313  eV     1   --> A'             
     e( 24 - 24) =     -3.07755  eV     1   --> A'             
     e( 25 - 25) =      2.67240  eV     1   --> A'             
     e( 26 - 26) =      6.01891  eV     1   --> A'             
     e( 27 - 27) =      6.34523  eV     1   --> A''            
     e( 28 - 28) =      6.41991  eV     1   --> A'             
     e( 29 - 29) =      7.17575  eV     1   --> A''            
     e( 30 - 30) =      7.41635  eV     1   --> A'             
     e( 31 - 31) =      7.99020  eV     1   --> A'             
     e( 32 - 32) =      8.55678  eV     1   --> A'             
     e( 33 - 33) =     10.18120  eV     1   --> A'             
     e( 34 - 34) =     10.58080  eV     1   --> A''            
     e( 35 - 35) =     11.12843  eV     1   --> A'             
     e( 36 - 36) =     11.35926  eV     1   --> A'             
     e( 37 - 37) =     11.42224  eV     1   --> A''            
     e( 38 - 38) =     11.92784  eV     1   --> A'             
     e( 39 - 39) =     12.30045  eV     1   --> A'             
     e( 40 - 40) =     12.40706  eV     1   --> A''            

 **************************************************************************

 **************************************************************************

                    xk=(  -0.08000,  -0.04619,   0.00000  )

     Band symmetry, C_s (m)     point group:

     e(  1 -  1) =    -69.75943  eV     1   --> A'             
     e(  2 -  2) =    -69.16048  eV     1   --> A'             
     e(  3 -  3) =    -69.15964  eV     1   --> A'             
     e(  4 -  4) =    -36.51037  eV     1   --> A'             
     e(  5 -  5) =    -36.50768  eV     1   --> A'             
     e(  6 -  6) =    -36.50709  eV     1   --> A''            
     e(  7 -  7) =    -35.91387  eV     1   --> A'             
     e(  8 -  8) =    -35.91355  eV     1   --> A''            
     e(  9 -  9) =    -35.91088  eV     1   --> A'             
     e( 10 - 10) =    -35.90983  eV     1   --> A''            
     e( 11 - 11) =    -35.90888  eV     1   --> A'             
     e( 12 - 12) =    -35.90771  eV     1   --> A'             
     e( 13 - 13) =    -14.72806  eV     1   --> A'             
     e( 14 - 14) =    -14.72766  eV     1   --> A''            
     e( 15 - 15) =    -14.72660  eV     1   --> A'             
     e( 16 - 16) =    -14.72635  eV     1   --> A''            
     e( 17 - 17) =    -14.71720  eV     1   --> A'             
     e( 18 - 18) =    -14.71618  eV     1   --> A'             
     e( 19 - 19) =    -14.69792  eV     1   --> A'             
     e( 20 - 20) =    -14.69780  eV     1   --> A''            
     e( 21 - 21) =    -14.68828  eV     1   --> A'             
     e( 22 - 22) =    -14.68788  eV     1   --> A''            
     e( 23 - 23) =     -3.93534  eV     1   --> A'             
     e( 24 - 24) =     -3.07385  eV     1   --> A'             
     e( 25 - 25) =      2.68497  eV     1   --> A'             
     e( 26 - 26) =      5.91278  eV     1   --> A'             
     e( 27 - 27) =      6.31528  eV     1   --> A''            
     e( 28 - 28) =      6.32009  eV     1   --> A'             
     e( 29 - 29) =      7.17753  eV     1   --> A''            
     e( 30 - 30) =      7.40872  eV     1   --> A'             
     e( 31 - 31) =      8.09596  eV     1   --> A'             
     e( 32 - 32) =      8.63858  eV     1   --> A'             
     e( 33 - 33) =     10.11515  eV     1   --> A'             
     e( 34 - 34) =     10.59898  eV     1   --> A''            
     e( 35 - 35) =     11.06271  eV     1   --> A'             
     e( 36 - 36) =     11.39038  eV     1   --> A'             
     e( 37 - 37) =     11.41439  eV     1   --> A''            
     e( 38 - 38) =     11.85727  eV     1   --> A'             
     e( 39 - 39) =     12.35770  eV     1   --> A'             
     e( 40 - 40) =     12.41665  eV     1   --> A''            

 **************************************************************************

 **************************************************************************

                    xk=(  -0.09000,  -0.05196,   0.00000  )

     Band symmetry, C_s (m)     point group:

     e(  1 -  1) =    -69.75944  eV     1   --> A'             
     e(  2 -  2) =    -69.16048  eV     1   --> A'             
     e(  3 -  3) =    -69.15965  eV     1   --> A'             
     e(  4 -  4) =    -36.51040  eV     1   --> A'             
     e(  5 -  5) =    -36.50789  eV     1   --> A'             
     e(  6 -  6) =    -36.50712  eV     1   --> A''            
     e(  7 -  7) =    -35.91410  eV     1   --> A'             
     e(  8 -  8) =    -35.91358  eV     1   --> A''            
     e(  9 -  9) =    -35.91110  eV     1   --> A'             
     e( 10 - 10) =    -35.90984  eV     1   --> A''            
     e( 11 - 11) =    -35.90888  eV     1   --> A'             
     e( 12 - 12) =    -35.90773  eV     1   --> A'             
     e( 13 - 13) =    -14.72819  eV     1   --> A'             
     e( 14 - 14) =    -14.72769  eV     1   --> A''            
     e( 15 - 15) =    -14.72656  eV     1   --> A'             
     e( 16 - 16) =    -14.72623  eV     1   --> A''            
     e( 17 - 17) =    -14.71715  eV     1   --> A'             
     e( 18 - 18) =    -14.71613  eV     1   --> A'             
     e( 19 - 19) =    -14.69790  eV     1   --> A'             
     e( 20 - 20) =    -14.69773  eV     1   --> A''            
     e( 21 - 21) =    -14.68833  eV     1   --> A'             
     e( 22 - 22) =    -14.68783  eV     1   --> A''            
     e( 23 - 23) =     -3.92657  eV     1   --> A'             
     e( 24 - 24) =     -3.06973  eV     1   --> A'             
     e( 25 - 25) =      2.69939  eV     1   --> A'             
     e( 26 - 26) =      5.80284  eV     1   --> A'             
     e( 27 - 27) =      6.22178  eV     1   --> A'             
     e( 28 - 28) =      6.28309  eV     1   --> A''            
     e( 29 - 29) =      7.17817  eV     1   --> A''            
     e( 30 - 30) =      7.39781  eV     1   --> A'             
     e( 31 - 31) =      8.19813  eV     1   --> A'             
     e( 32 - 32) =      8.72036  eV     1   --> A'             
     e( 33 - 33) =     10.05525  eV     1   --> A'             
     e( 34 - 34) =     10.61910  eV     1   --> A''            
     e( 35 - 35) =     10.99776  eV     1   --> A'             
     e( 36 - 36) =     11.40503  eV     1   --> A''            
     e( 37 - 37) =     11.42265  eV     1   --> A'             
     e( 38 - 38) =     11.78095  eV     1   --> A'             
     e( 39 - 39) =     12.40808  eV     1   --> A'             
     e( 40 - 40) =     12.43622  eV     1   --> A''            

 **************************************************************************

 **************************************************************************

                    xk=(  -0.10000,  -0.05774,   0.00000  )

     Band symmetry, C_s (m)     point group:

     e(  1 -  1) =    -69.75942  eV     1   --> A'             
     e(  2 -  2) =    -69.16046  eV     1   --> A'             
     e(  3 -  3) =    -69.15964  eV     1   --> A'             
     e(  4 -  4) =    -36.51028  eV     1   --> A'             
     e(  5 -  5) =    -36.50778  eV     1   --> A'             
     e(  6 -  6) =    -36.50673  eV     1   --> A''            
     e(  7 -  7) =    -35.91400  eV     1   --> A'             
     e(  8 -  8) =    -35.91306  eV     1   --> A''            
     e(  9 -  9) =    -35.91106  eV     1   --> A'             
     e( 10 - 10) =    -35.90959  eV     1   --> A''            
     e( 11 - 11) =    -35.90874  eV     1   --> A'             
     e( 12 - 12) =    -35.90754  eV     1   --> A'             
     e( 13 - 13) =    -14.72830  eV     1   --> A'             
     e( 14 - 14) =    -14.72771  eV     1   --> A''            
     e( 15 - 15) =    -14.72652  eV     1   --> A'             
     e( 16 - 16) =    -14.72610  eV     1   --> A''            
     e( 17 - 17) =    -14.71709  eV     1   --> A'             
     e( 18 - 18) =    -14.71606  eV     1   --> A'             
     e( 19 - 19) =    -14.69787  eV     1   --> A'             
     e( 20 - 20) =    -14.69766  eV     1   --> A''            
     e( 21 - 21) =    -14.68839  eV     1   --> A'             
     e( 22 - 22) =    -14.68777  eV     1   --> A''            
     e( 23 - 23) =     -3.91677  eV     1   --> A'             
     e( 24 - 24) =     -3.06516  eV     1   --> A'             
     e( 25 - 25) =      2.71579  eV     1   --> A'             
     e( 26 - 26) =      5.69059  eV     1   --> A'             
     e( 27 - 27) =      6.12475  eV     1   --> A'             
     e( 28 - 28) =      6.24926  eV     1   --> A''            
     e( 29 - 29) =      7.17750  eV     1   --> A''            
     e( 30 - 30) =      7.38375  eV     1   --> A'             
     e( 31 - 31) =      8.29669  eV     1   --> A'             
     e( 32 - 32) =      8.79834  eV     1   --> A'             
     e( 33 - 33) =     10.00428  eV     1   --> A'             
     e( 34 - 34) =     10.64063  eV     1   --> A''            
     e( 35 - 35) =     10.93436  eV     1   --> A'             
     e( 36 - 36) =     11.39530  eV     1   --> A''            
     e( 37 - 37) =     11.45402  eV     1   --> A'             
     e( 38 - 38) =     11.70719  eV     1   --> A'             
     e( 39 - 39) =     12.43400  eV     1   --> A'             
     e( 40 - 40) =     12.46559  eV     1   --> A''            

 **************************************************************************

 **************************************************************************

                    xk=(  -0.11000,  -0.06351,   0.00000  )

     Band symmetry, C_s (m)     point group:

     e(  1 -  1) =    -69.75944  eV     1   --> A'             
     e(  2 -  2) =    -69.16048  eV     1   --> A'             
     e(  3 -  3) =    -69.15965  eV     1   --> A'             
     e(  4 -  4) =    -36.51041  eV     1   --> A'             
     e(  5 -  5) =    -36.50788  eV     1   --> A'             
     e(  6 -  6) =    -36.50726  eV     1   --> A''            
     e(  7 -  7) =    -35.91410  eV     1   --> A'             
     e(  8 -  8) =    -35.91347  eV     1   --> A''            
     e(  9 -  9) =    -35.91124  eV     1   --> A'             
     e( 10 - 10) =    -35.91023  eV     1   --> A''            
     e( 11 - 11) =    -35.90885  eV     1   --> A'             
     e( 12 - 12) =    -35.90762  eV     1   --> A'             
     e( 13 - 13) =    -14.72843  eV     1   --> A'             
     e( 14 - 14) =    -14.72774  eV     1   --> A''            
     e( 15 - 15) =    -14.72649  eV     1   --> A'             
     e( 16 - 16) =    -14.72597  eV     1   --> A''            
     e( 17 - 17) =    -14.71703  eV     1   --> A'             
     e( 18 - 18) =    -14.71601  eV     1   --> A'             
     e( 19 - 19) =    -14.69784  eV     1   --> A'             
     e( 20 - 20) =    -14.69759  eV     1   --> A''            
     e( 21 - 21) =    -14.68846  eV     1   --> A'             
     e( 22 - 22) =    -14.68773  eV     1   --> A''            
     e( 23 - 23) =     -3.90604  eV     1   --> A'             
     e( 24 - 24) =     -3.06023  eV     1   --> A'             
     e( 25 - 25) =      2.73317  eV     1   --> A'             
     e( 26 - 26) =      5.57688  eV     1   --> A'             
     e( 27 - 27) =      6.02856  eV     1   --> A'             
     e( 28 - 28) =      6.21368  eV     1   --> A''            
     e( 29 - 29) =      7.17531  eV     1   --> A''            
     e( 30 - 30) =      7.36650  eV     1   --> A'             
     e( 31 - 31) =      8.39125  eV     1   --> A'             
     e( 32 - 32) =      8.86632  eV     1   --> A'             
     e( 33 - 33) =      9.96593  eV     1   --> A'             
     e( 34 - 34) =     10.66200  eV     1   --> A''            
     e( 35 - 35) =     10.87309  eV     1   --> A'             
     e( 36 - 36) =     11.38561  eV     1   --> A''            
     e( 37 - 37) =     11.47636  eV     1   --> A'             
     e( 38 - 38) =     11.64632  eV     1   --> A'             
     e( 39 - 39) =     12.43519  eV     1   --> A'             
     e( 40 - 40) =     12.50381  eV     1   --> A''            

 **************************************************************************

 **************************************************************************

                    xk=(  -0.12000,  -0.06928,   0.00000  )

     Band symmetry, C_s (m)     point group:

     e(  1 -  1) =    -69.75943  eV     1   --> A'             
     e(  2 -  2) =    -69.16047  eV     1   --> A'             
     e(  3 -  3) =    -69.15965  eV     1   --> A'             
     e(  4 -  4) =    -36.51041  eV     1   --> A'             
     e(  5 -  5) =    -36.50760  eV     1   --> A'             
     e(  6 -  6) =    -36.50724  eV     1   --> A''            
     e(  7 -  7) =    -35.91389  eV     1   --> A'             
     e(  8 -  8) =    -35.91348  eV     1   --> A''            
     e(  9 -  9) =    -35.91108  eV     1   --> A'             
     e( 10 - 10) =    -35.91020  eV     1   --> A''            
     e( 11 - 11) =    -35.90870  eV     1   --> A'             
     e( 12 - 12) =    -35.90759  eV     1   --> A'             
     e( 13 - 13) =    -14.72856  eV     1   --> A'             
     e( 14 - 14) =    -14.72776  eV     1   --> A''            
     e( 15 - 15) =    -14.72645  eV     1   --> A'             
     e( 16 - 16) =    -14.72584  eV     1   --> A''            
     e( 17 - 17) =    -14.71695  eV     1   --> A'             
     e( 18 - 18) =    -14.71594  eV     1   --> A'             
     e( 19 - 19) =    -14.69779  eV     1   --> A'             
     e( 20 - 20) =    -14.69751  eV     1   --> A''            
     e( 21 - 21) =    -14.68852  eV     1   --> A'             
     e( 22 - 22) =    -14.68766  eV     1   --> A''            
     e( 23 - 23) =     -3.89428  eV     1   --> A'             
     e( 24 - 24) =     -3.05491  eV     1   --> A'             
     e( 25 - 25) =      2.75259  eV     1   --> A'             
     e( 26 - 26) =      5.46262  eV     1   --> A'             
     e( 27 - 27) =      5.93342  eV     1   --> A'             
     e( 28 - 28) =      6.17704  eV     1   --> A''            
     e( 29 - 29) =      7.17152  eV     1   --> A''            
     e( 30 - 30) =      7.34618  eV     1   --> A'             
     e( 31 - 31) =      8.48200  eV     1   --> A'             
     e( 32 - 32) =      8.91978  eV     1   --> A'             
     e( 33 - 33) =      9.94619  eV     1   --> A'             
     e( 34 - 34) =     10.68336  eV     1   --> A''            
     e( 35 - 35) =     10.81514  eV     1   --> A'             
     e( 36 - 36) =     11.37837  eV     1   --> A''            
     e( 37 - 37) =     11.46704  eV     1   --> A'             
     e( 38 - 38) =     11.62308  eV     1   --> A'             
     e( 39 - 39) =     12.42348  eV     1   --> A'             
     e( 40 - 40) =     12.55058  eV     1   --> A''            

 **************************************************************************

 **************************************************************************

                    xk=(  -0.13000,  -0.07506,   0.00000  )

     Band symmetry, C_s (m)     point group:

     e(  1 -  1) =    -69.75942  eV     1   --> A'             
     e(  2 -  2) =    -69.16046  eV     1   --> A'             
     e(  3 -  3) =    -69.15963  eV     1   --> A'             
     e(  4 -  4) =    -36.51045  eV     1   --> A'             
     e(  5 -  5) =    -36.50722  eV     1   --> A'             
     e(  6 -  6) =    -36.50712  eV     1   --> A''            
     e(  7 -  8) =    -35.91344  eV     2   --> A'             
     e(  7 -  8) =    -35.91344  eV     2   --> A''            
     e(  9 -  9) =    -35.91109  eV     1   --> A'             
     e( 10 - 10) =    -35.91009  eV     1   --> A''            
     e( 11 - 11) =    -35.90854  eV     1   --> A'             
     e( 12 - 12) =    -35.90753  eV     1   --> A'             
     e( 13 - 13) =    -14.72869  eV     1   --> A'             
     e( 14 - 14) =    -14.72775  eV     1   --> A''            
     e( 15 - 15) =    -14.72642  eV     1   --> A'             
     e( 16 - 16) =    -14.72569  eV     1   --> A''            
     e( 17 - 17) =    -14.71687  eV     1   --> A'             
     e( 18 - 18) =    -14.71586  eV     1   --> A'             
     e( 19 - 19) =    -14.69774  eV     1   --> A'             
     e( 20 - 20) =    -14.69741  eV     1   --> A''            
     e( 21 - 21) =    -14.68860  eV     1   --> A'             
     e( 22 - 22) =    -14.68758  eV     1   --> A''            
     e( 23 - 23) =     -3.88158  eV     1   --> A'             
     e( 24 - 24) =     -3.04924  eV     1   --> A'             
     e( 25 - 25) =      2.77366  eV     1   --> A'             
     e( 26 - 26) =      5.34828  eV     1   --> A'             
     e( 27 - 27) =      5.83919  eV     1   --> A'             
     e( 28 - 28) =      6.13957  eV     1   --> A''            
     e( 29 - 29) =      7.16609  eV     1   --> A''            
     e( 30 - 30) =      7.32286  eV     1   --> A'             
     e( 31 - 31) =      8.56849  eV     1   --> A'             
     e( 32 - 32) =      8.95346  eV     1   --> A'             
     e( 33 - 33) =      9.94838  eV     1   --> A'             
     e( 34 - 34) =     10.70296  eV     1   --> A''            
     e( 35 - 35) =     10.76084  eV     1   --> A'             
     e( 36 - 36) =     11.37518  eV     1   --> A''            
     e( 37 - 37) =     11.41916  eV     1   --> A'             
     e( 38 - 38) =     11.64494  eV     1   --> A'             
     e( 39 - 39) =     12.40672  eV     1   --> A'             
     e( 40 - 40) =     12.60508  eV     1   --> A''            

 **************************************************************************

 **************************************************************************

                    xk=(  -0.14000,  -0.08083,   0.00000  )

     Band symmetry, C_s (m)     point group:

     e(  1 -  1) =    -69.75943  eV     1   --> A'             
     e(  2 -  2) =    -69.16046  eV     1   --> A'             
     e(  3 -  3) =    -69.15966  eV     1   --> A'             
     e(  4 -  4) =    -36.51078  eV     1   --> A'             
     e(  5 -  5) =    -36.50759  eV     1   --> A'             
     e(  6 -  6) =    -36.50719  eV     1   --> A''            
     e(  7 -  7) =    -35.91382  eV     1   --> A'             
     e(  8 -  8) =    -35.91347  eV     1   --> A''            
     e(  9 -  9) =    -35.91157  eV     1   --> A'             
     e( 10 - 10) =    -35.91011  eV     1   --> A''            
     e( 11 - 11) =    -35.90897  eV     1   --> A'             
     e( 12 - 12) =    -35.90763  eV     1   --> A'             
     e( 13 - 13) =    -14.72883  eV     1   --> A'             
     e( 14 - 14) =    -14.72777  eV     1   --> A''            
     e( 15 - 15) =    -14.72639  eV     1   --> A'             
     e( 16 - 16) =    -14.72555  eV     1   --> A''            
     e( 17 - 17) =    -14.71681  eV     1   --> A'             
     e( 18 - 18) =    -14.71581  eV     1   --> A'             
     e( 19 - 19) =    -14.69770  eV     1   --> A'             
     e( 20 - 20) =    -14.69732  eV     1   --> A''            
     e( 21 - 21) =    -14.68869  eV     1   --> A'             
     e( 22 - 22) =    -14.68752  eV     1   --> A''            
     e( 23 - 23) =     -3.86807  eV     1   --> A'             
     e( 24 - 24) =     -3.04329  eV     1   --> A'             
     e( 25 - 25) =      2.79621  eV     1   --> A'             
     e( 26 - 26) =      5.23438  eV     1   --> A'             
     e( 27 - 27) =      5.74552  eV     1   --> A'             
     e( 28 - 28) =      6.10140  eV     1   --> A''            
     e( 29 - 29) =      7.15899  eV     1   --> A''            
     e( 30 - 30) =      7.29639  eV     1   --> A'             
     e( 31 - 31) =      8.64936  eV     1   --> A'             
     e( 32 - 32) =      8.96354  eV     1   --> A'             
     e( 33 - 33) =      9.97350  eV     1   --> A'             
     e( 34 - 34) =     10.71193  eV     1   --> A'             
     e( 35 - 35) =     10.71927  eV     1   --> A''            
     e( 36 - 36) =     11.35848  eV     1   --> A'             
     e( 37 - 37) =     11.37784  eV     1   --> A''            
     e( 38 - 38) =     11.68693  eV     1   --> A'             
     e( 39 - 39) =     12.38931  eV     1   --> A'             
     e( 40 - 40) =     12.66644  eV     1   --> A''            

 **************************************************************************

 **************************************************************************

                    xk=(  -0.15000,  -0.08660,   0.00000  )

     Band symmetry, C_s (m)     point group:

     e(  1 -  1) =    -69.75943  eV     1   --> A'             
     e(  2 -  2) =    -69.16045  eV     1   --> A'             
     e(  3 -  3) =    -69.15966  eV     1   --> A'             
     e(  4 -  4) =    -36.51078  eV     1   --> A'             
     e(  5 -  5) =    -36.50740  eV     1   --> A''            
     e(  6 -  6) =    -36.50730  eV     1   --> A'             
     e(  7 -  8) =    -35.91378  eV     2   --> A'             
     e(  7 -  8) =    -35.91378  eV     2   --> A''            
     e(  9 -  9) =    -35.91139  eV     1   --> A'             
     e( 10 - 10) =    -35.91020  eV     1   --> A''            
     e( 11 - 11) =    -35.90871  eV     1   --> A'             
     e( 12 - 12) =    -35.90759  eV     1   --> A'             
     e( 13 - 13) =    -14.72898  eV     1   --> A'             
     e( 14 - 14) =    -14.72777  eV     1   --> A''            
     e( 15 - 15) =    -14.72636  eV     1   --> A'             
     e( 16 - 16) =    -14.72540  eV     1   --> A''            
     e( 17 - 17) =    -14.71673  eV     1   --> A'             
     e( 18 - 18) =    -14.71573  eV     1   --> A'             
     e( 19 - 19) =    -14.69764  eV     1   --> A'             
     e( 20 - 20) =    -14.69722  eV     1   --> A''            
     e( 21 - 21) =    -14.68878  eV     1   --> A'             
     e( 22 - 22) =    -14.68743  eV     1   --> A''            
     e( 23 - 23) =     -3.85360  eV     1   --> A'             
     e( 24 - 24) =     -3.03704  eV     1   --> A'             
     e( 25 - 25) =      2.82050  eV     1   --> A'             
     e( 26 - 26) =      5.12148  eV     1   --> A'             
     e( 27 - 27) =      5.65318  eV     1   --> A'             
     e( 28 - 28) =      6.06282  eV     1   --> A''            
     e( 29 - 29) =      7.15024  eV     1   --> A''            
     e( 30 - 30) =      7.26694  eV     1   --> A'             
     e( 31 - 31) =      8.72532  eV     1   --> A'             
     e( 32 - 32) =      8.95271  eV     1   --> A'             
     e( 33 - 33) =     10.01949  eV     1   --> A'             
     e( 34 - 34) =     10.67053  eV     1   --> A'             
     e( 35 - 35) =     10.73095  eV     1   --> A''            
     e( 36 - 36) =     11.29736  eV     1   --> A'             
     e( 37 - 37) =     11.38814  eV     1   --> A''            
     e( 38 - 38) =     11.73766  eV     1   --> A'             
     e( 39 - 39) =     12.37382  eV     1   --> A'             
     e( 40 - 40) =     12.73408  eV     1   --> A''            

 **************************************************************************

 **************************************************************************

                    xk=(  -0.16000,  -0.09238,   0.00000  )

     Band symmetry, C_s (m)     point group:

     e(  1 -  1) =    -69.75944  eV     1   --> A'             
     e(  2 -  2) =    -69.16045  eV     1   --> A'             
     e(  3 -  3) =    -69.15968  eV     1   --> A'             
     e(  4 -  4) =    -36.51101  eV     1   --> A'             
     e(  5 -  5) =    -36.50752  eV     1   --> A''            
     e(  6 -  6) =    -36.50736  eV     1   --> A'             
     e(  7 -  8) =    -35.91391  eV     2   --> A'             
     e(  7 -  8) =    -35.91391  eV     2   --> A''            
     e(  9 -  9) =    -35.91161  eV     1   --> A'             
     e( 10 - 10) =    -35.91031  eV     1   --> A''            
     e( 11 - 11) =    -35.90880  eV     1   --> A'             
     e( 12 - 12) =    -35.90774  eV     1   --> A'             
     e( 13 - 13) =    -14.72912  eV     1   --> A'             
     e( 14 - 14) =    -14.72779  eV     1   --> A''            
     e( 15 - 15) =    -14.72634  eV     1   --> A'             
     e( 16 - 16) =    -14.72525  eV     1   --> A''            
     e( 17 - 17) =    -14.71665  eV     1   --> A'             
     e( 18 - 18) =    -14.71565  eV     1   --> A'             
     e( 19 - 19) =    -14.69758  eV     1   --> A'             
     e( 20 - 20) =    -14.69711  eV     1   --> A''            
     e( 21 - 21) =    -14.68888  eV     1   --> A'             
     e( 22 - 22) =    -14.68737  eV     1   --> A''            
     e( 23 - 23) =     -3.83836  eV     1   --> A'             
     e( 24 - 24) =     -3.03056  eV     1   --> A'             
     e( 25 - 25) =      2.84641  eV     1   --> A'             
     e( 26 - 26) =      5.00980  eV     1   --> A'             
     e( 27 - 27) =      5.56164  eV     1   --> A'             
     e( 28 - 28) =      6.02402  eV     1   --> A''            
     e( 29 - 29) =      7.13994  eV     1   --> A''            
     e( 30 - 30) =      7.23440  eV     1   --> A'             
     e( 31 - 31) =      8.79470  eV     1   --> A'             
     e( 32 - 32) =      8.92436  eV     1   --> A'             
     e( 33 - 33) =     10.07865  eV     1   --> A'             
     e( 34 - 34) =     10.63901  eV     1   --> A'             
     e( 35 - 35) =     10.73695  eV     1   --> A''            
     e( 36 - 36) =     11.23983  eV     1   --> A'             
     e( 37 - 37) =     11.40789  eV     1   --> A''            
     e( 38 - 38) =     11.79256  eV     1   --> A'             
     e( 39 - 39) =     12.36221  eV     1   --> A'             
     e( 40 - 40) =     12.80732  eV     1   --> A''            

 **************************************************************************

 **************************************************************************

                    xk=(  -0.17000,  -0.09815,   0.00000  )

     Band symmetry, C_s (m)     point group:

     e(  1 -  1) =    -69.75945  eV     1   --> A'             
     e(  2 -  2) =    -69.16045  eV     1   --> A'             
     e(  3 -  3) =    -69.15970  eV     1   --> A'             
     e(  4 -  4) =    -36.51104  eV     1   --> A'             
     e(  5 -  5) =    -36.50779  eV     1   --> A''            
     e(  6 -  6) =    -36.50746  eV     1   --> A'             
     e(  7 -  7) =    -35.91415  eV     1   --> A''            
     e(  8 -  8) =    -35.91400  eV     1   --> A'             
     e(  9 -  9) =    -35.91171  eV     1   --> A'             
     e( 10 - 10) =    -35.91060  eV     1   --> A''            
     e( 11 - 11) =    -35.90877  eV     1   --> A'             
     e( 12 - 12) =    -35.90776  eV     1   --> A'             
     e( 13 - 13) =    -14.72928  eV     1   --> A'             
     e( 14 - 14) =    -14.72780  eV     1   --> A''            
     e( 15 - 15) =    -14.72631  eV     1   --> A'             
     e( 16 - 16) =    -14.72510  eV     1   --> A''            
     e( 17 - 17) =    -14.71657  eV     1   --> A'             
     e( 18 - 18) =    -14.71557  eV     1   --> A'             
     e( 19 - 19) =    -14.69751  eV     1   --> A'             
     e( 20 - 20) =    -14.69701  eV     1   --> A''            
     e( 21 - 21) =    -14.68898  eV     1   --> A'             
     e( 22 - 22) =    -14.68728  eV     1   --> A''            
     e( 23 - 23) =     -3.82229  eV     1   --> A'             
     e( 24 - 24) =     -3.02387  eV     1   --> A'             
     e( 25 - 25) =      2.87391  eV     1   --> A'             
     e( 26 - 26) =      4.89957  eV     1   --> A'             
     e( 27 - 27) =      5.47123  eV     1   --> A'             
     e( 28 - 28) =      5.98514  eV     1   --> A''            
     e( 29 - 29) =      7.12817  eV     1   --> A''            
     e( 30 - 30) =      7.19884  eV     1   --> A'             
     e( 31 - 31) =      8.85314  eV     1   --> A'             
     e( 32 - 32) =      8.88781  eV     1   --> A'             
     e( 33 - 33) =     10.14066  eV     1   --> A'             
     e( 34 - 34) =     10.62279  eV     1   --> A'             
     e( 35 - 35) =     10.73672  eV     1   --> A''            
     e( 36 - 36) =     11.18782  eV     1   --> A'             
     e( 37 - 37) =     11.43773  eV     1   --> A''            
     e( 38 - 38) =     11.84965  eV     1   --> A'             
     e( 39 - 39) =     12.35659  eV     1   --> A'             
     e( 40 - 40) =     12.88557  eV     1   --> A''            

 **************************************************************************

 **************************************************************************

                    xk=(  -0.18000,  -0.10392,   0.00000  )

     Band symmetry, C_s (m)     point group:

     e(  1 -  1) =    -69.75945  eV     1   --> A'             
     e(  2 -  2) =    -69.16044  eV     1   --> A'             
     e(  3 -  3) =    -69.15971  eV     1   --> A'             
     e(  4 -  4) =    -36.51094  eV     1   --> A'             
     e(  5 -  5) =    -36.50785  eV     1   --> A''            
     e(  6 -  6) =    -36.50755  eV     1   --> A'             
     e(  7 -  8) =    -35.91429  eV     2   --> A'             
     e(  7 -  8) =    -35.91429  eV     2   --> A''            
     e(  9 -  9) =    -35.91190  eV     1   --> A'             
     e( 10 - 10) =    -35.91058  eV     1   --> A''            
     e( 11 - 11) =    -35.90868  eV     1   --> A'             
     e( 12 - 12) =    -35.90742  eV     1   --> A'             
     e( 13 - 13) =    -14.72944  eV     1   --> A'             
     e( 14 - 14) =    -14.72780  eV     1   --> A''            
     e( 15 - 15) =    -14.72629  eV     1   --> A'             
     e( 16 - 16) =    -14.72495  eV     1   --> A''            
     e( 17 - 17) =    -14.71648  eV     1   --> A'             
     e( 18 - 18) =    -14.71547  eV     1   --> A'             
     e( 19 - 19) =    -14.69744  eV     1   --> A'             
     e( 20 - 20) =    -14.69689  eV     1   --> A''            
     e( 21 - 21) =    -14.68908  eV     1   --> A'             
     e( 22 - 22) =    -14.68720  eV     1   --> A''            
     e( 23 - 23) =     -3.80537  eV     1   --> A'             
     e( 24 - 24) =     -3.01700  eV     1   --> A'             
     e( 25 - 25) =      2.90311  eV     1   --> A'             
     e( 26 - 26) =      4.79101  eV     1   --> A'             
     e( 27 - 27) =      5.38229  eV     1   --> A'             
     e( 28 - 28) =      5.94646  eV     1   --> A''            
     e( 29 - 29) =      7.11506  eV     1   --> A''            
     e( 30 - 30) =      7.16026  eV     1   --> A'             
     e( 31 - 31) =      8.82785  eV     1   --> A'             
     e( 32 - 32) =      8.91985  eV     1   --> A'             
     e( 33 - 33) =     10.19269  eV     1   --> A'             
     e( 34 - 34) =     10.63006  eV     1   --> A'             
     e( 35 - 35) =     10.73037  eV     1   --> A''            
     e( 36 - 36) =     11.14252  eV     1   --> A'             
     e( 37 - 37) =     11.47774  eV     1   --> A''            
     e( 38 - 38) =     11.90638  eV     1   --> A'             
     e( 39 - 39) =     12.35947  eV     1   --> A'             
     e( 40 - 40) =     12.96856  eV     1   --> A''            

 **************************************************************************

 **************************************************************************

                    xk=(  -0.19000,  -0.10970,   0.00000  )

     Band symmetry, C_s (m)     point group:

     e(  1 -  1) =    -69.75944  eV     1   --> A'             
     e(  2 -  2) =    -69.16042  eV     1   --> A'             
     e(  3 -  3) =    -69.15971  eV     1   --> A'             
     e(  4 -  4) =    -36.51087  eV     1   --> A'             
     e(  5 -  6) =    -36.50762  eV     2   --> A'             
     e(  5 -  6) =    -36.50762  eV     2   --> A''            
     e(  7 -  8) =    -35.91418  eV     2   --> A'             
     e(  7 -  8) =    -35.91418  eV     2   --> A''            
     e(  9 -  9) =    -35.91190  eV     1   --> A'             
     e( 10 - 10) =    -35.91031  eV     1   --> A''            
     e( 11 - 11) =    -35.90859  eV     1   --> A'             
     e( 12 - 12) =    -35.90737  eV     1   --> A'             
     e( 13 - 13) =    -14.72959  eV     1   --> A'             
     e( 14 - 14) =    -14.72779  eV     1   --> A''            
     e( 15 - 15) =    -14.72626  eV     1   --> A'             
     e( 16 - 16) =    -14.72479  eV     1   --> A''            
     e( 17 - 17) =    -14.71639  eV     1   --> A'             
     e( 18 - 18) =    -14.71537  eV     1   --> A'             
     e( 19 - 19) =    -14.69736  eV     1   --> A'             
     e( 20 - 20) =    -14.69676  eV     1   --> A''            
     e( 21 - 21) =    -14.68918  eV     1   --> A'             
     e( 22 - 22) =    -14.68711  eV     1   --> A''            
     e( 23 - 23) =     -3.78769  eV     1   --> A'             
     e( 24 - 24) =     -3.01000  eV     1   --> A'             
     e( 25 - 25) =      2.93377  eV     1   --> A'             
     e( 26 - 26) =      4.68434  eV     1   --> A'             
     e( 27 - 27) =      5.29485  eV     1   --> A'             
     e( 28 - 28) =      5.90814  eV     1   --> A''            
     e( 29 - 29) =      7.10077  eV     1   --> A''            
     e( 30 - 30) =      7.11864  eV     1   --> A'             
     e( 31 - 31) =      8.77288  eV     1   --> A'             
     e( 32 - 32) =      8.96956  eV     1   --> A'             
     e( 33 - 33) =     10.22356  eV     1   --> A'             
     e( 34 - 34) =     10.66821  eV     1   --> A'             
     e( 35 - 35) =     10.71861  eV     1   --> A''            
     e( 36 - 36) =     11.10577  eV     1   --> A'             
     e( 37 - 37) =     11.52743  eV     1   --> A''            
     e( 38 - 38) =     11.95951  eV     1   --> A'             
     e( 39 - 39) =     12.37438  eV     1   --> A'             
     e( 40 - 40) =     13.05589  eV     1   --> A''            

 **************************************************************************

 **************************************************************************

                    xk=(  -0.20000,  -0.11547,   0.00000  )

     Band symmetry, C_s (m)     point group:

     e(  1 -  1) =    -69.75942  eV     1   --> A'             
     e(  2 -  2) =    -69.16041  eV     1   --> A'             
     e(  3 -  3) =    -69.15970  eV     1   --> A'             
     e(  4 -  4) =    -36.51083  eV     1   --> A'             
     e(  5 -  5) =    -36.50764  eV     1   --> A''            
     e(  6 -  6) =    -36.50706  eV     1   --> A'             
     e(  7 -  7) =    -35.91415  eV     1   --> A''            
     e(  8 -  8) =    -35.91367  eV     1   --> A'             
     e(  9 -  9) =    -35.91161  eV     1   --> A'             
     e( 10 - 10) =    -35.91030  eV     1   --> A''            
     e( 11 - 11) =    -35.90841  eV     1   --> A'             
     e( 12 - 12) =    -35.90734  eV     1   --> A'             
     e( 13 - 13) =    -14.72972  eV     1   --> A'             
     e( 14 - 14) =    -14.72778  eV     1   --> A''            
     e( 15 - 15) =    -14.72623  eV     1   --> A'             
     e( 16 - 16) =    -14.72462  eV     1   --> A''            
     e( 17 - 17) =    -14.71630  eV     1   --> A'             
     e( 18 - 18) =    -14.71527  eV     1   --> A'             
     e( 19 - 19) =    -14.69725  eV     1   --> A'             
     e( 20 - 20) =    -14.69663  eV     1   --> A''            
     e( 21 - 21) =    -14.68927  eV     1   --> A'             
     e( 22 - 22) =    -14.68701  eV     1   --> A''            
     e( 23 - 23) =     -3.76923  eV     1   --> A'             
     e( 24 - 24) =     -3.00292  eV     1   --> A'             
     e( 25 - 25) =      2.96592  eV     1   --> A'             
     e( 26 - 26) =      4.57975  eV     1   --> A'             
     e( 27 - 27) =      5.20880  eV     1   --> A'             
     e( 28 - 28) =      5.87014  eV     1   --> A''            
     e( 29 - 29) =      7.07403  eV     1   --> A'             
     e( 30 - 30) =      7.08536  eV     1   --> A''            
     e( 31 - 31) =      8.71383  eV     1   --> A'             
     e( 32 - 32) =      9.01330  eV     1   --> A'             
     e( 33 - 33) =     10.23114  eV     1   --> A'             
     e( 34 - 34) =     10.70233  eV     1   --> A''            
     e( 35 - 35) =     10.73512  eV     1   --> A'             
     e( 36 - 36) =     11.07935  eV     1   --> A'             
     e( 37 - 37) =     11.58585  eV     1   --> A''            
     e( 38 - 38) =     12.00563  eV     1   --> A'             
     e( 39 - 39) =     12.40485  eV     1   --> A'             
     e( 40 - 40) =     13.14687  eV     1   --> A''            

 **************************************************************************

 **************************************************************************

                    xk=(  -0.21000,  -0.12124,   0.00000  )

     Band symmetry, C_s (m)     point group:

     e(  1 -  1) =    -69.75944  eV     1   --> A'             
     e(  2 -  2) =    -69.16041  eV     1   --> A'             
     e(  3 -  3) =    -69.15973  eV     1   --> A'             
     e(  4 -  4) =    -36.51088  eV     1   --> A'             
     e(  5 -  5) =    -36.50788  eV     1   --> A''            
     e(  6 -  6) =    -36.50749  eV     1   --> A'             
     e(  7 -  7) =    -35.91441  eV     1   --> A''            
     e(  8 -  8) =    -35.91408  eV     1   --> A'             
     e(  9 -  9) =    -35.91177  eV     1   --> A'             
     e( 10 - 10) =    -35.91052  eV     1   --> A''            
     e( 11 - 11) =    -35.90867  eV     1   --> A'             
     e( 12 - 12) =    -35.90747  eV     1   --> A'             
     e( 13 - 13) =    -14.72988  eV     1   --> A'             
     e( 14 - 14) =    -14.72779  eV     1   --> A''            
     e( 15 - 15) =    -14.72622  eV     1   --> A'             
     e( 16 - 16) =    -14.72447  eV     1   --> A''            
     e( 17 - 17) =    -14.71622  eV     1   --> A'             
     e( 18 - 18) =    -14.71518  eV     1   --> A'             
     e( 19 - 19) =    -14.69718  eV     1   --> A'             
     e( 20 - 20) =    -14.69651  eV     1   --> A''            
     e( 21 - 21) =    -14.68938  eV     1   --> A'             
     e( 22 - 22) =    -14.68693  eV     1   --> A''            
     e( 23 - 23) =     -3.75019  eV     1   --> A'             
     e( 24 - 24) =     -2.99582  eV     1   --> A'             
     e( 25 - 25) =      2.99938  eV     1   --> A'             
     e( 26 - 26) =      4.47691  eV     1   --> A'             
     e( 27 - 27) =      5.12398  eV     1   --> A'             
     e( 28 - 28) =      5.83263  eV     1   --> A''            
     e( 29 - 29) =      7.02635  eV     1   --> A'             
     e( 30 - 30) =      7.06898  eV     1   --> A''            
     e( 31 - 31) =      8.65257  eV     1   --> A'             
     e( 32 - 32) =      9.04959  eV     1   --> A'             
     e( 33 - 33) =     10.22117  eV     1   --> A'             
     e( 34 - 34) =     10.68226  eV     1   --> A''            
     e( 35 - 35) =     10.81810  eV     1   --> A'             
     e( 36 - 36) =     11.06673  eV     1   --> A'             
     e( 37 - 37) =     11.65197  eV     1   --> A''            
     e( 38 - 38) =     12.04231  eV     1   --> A'             
     e( 39 - 39) =     12.45313  eV     1   --> A'             
     e( 40 - 40) =     13.24125  eV     1   --> A''            

 **************************************************************************

 **************************************************************************

                    xk=(  -0.22000,  -0.12702,   0.00000  )

     Band symmetry, C_s (m)     point group:

     e(  1 -  1) =    -69.75943  eV     1   --> A'             
     e(  2 -  2) =    -69.16041  eV     1   --> A'             
     e(  3 -  3) =    -69.15971  eV     1   --> A'             
     e(  4 -  4) =    -36.51087  eV     1   --> A'             
     e(  5 -  5) =    -36.50786  eV     1   --> A''            
     e(  6 -  6) =    -36.50711  eV     1   --> A'             
     e(  7 -  7) =    -35.91440  eV     1   --> A''            
     e(  8 -  8) =    -35.91350  eV     1   --> A'             
     e(  9 -  9) =    -35.91175  eV     1   --> A'             
     e( 10 - 10) =    -35.91050  eV     1   --> A''            
     e( 11 - 11) =    -35.90857  eV     1   --> A'             
     e( 12 - 12) =    -35.90740  eV     1   --> A'             
     e( 13 - 13) =    -14.73003  eV     1   --> A'             
     e( 14 - 14) =    -14.72778  eV     1   --> A''            
     e( 15 - 15) =    -14.72619  eV     1   --> A'             
     e( 16 - 16) =    -14.72430  eV     1   --> A''            
     e( 17 - 17) =    -14.71613  eV     1   --> A'             
     e( 18 - 18) =    -14.71507  eV     1   --> A'             
     e( 19 - 19) =    -14.69707  eV     1   --> A'             
     e( 20 - 20) =    -14.69637  eV     1   --> A''            
     e( 21 - 21) =    -14.68949  eV     1   --> A'             
     e( 22 - 22) =    -14.68683  eV     1   --> A''            
     e( 23 - 23) =     -3.73046  eV     1   --> A'             
     e( 24 - 24) =     -2.98870  eV     1   --> A'             
     e( 25 - 25) =      3.03447  eV     1   --> A'             
     e( 26 - 26) =      4.37684  eV     1   --> A'             
     e( 27 - 27) =      5.04104  eV     1   --> A'             
     e( 28 - 28) =      5.79576  eV     1   --> A''            
     e( 29 - 29) =      6.97577  eV     1   --> A'             
     e( 30 - 30) =      7.05183  eV     1   --> A''            
     e( 31 - 31) =      8.59121  eV     1   --> A'             
     e( 32 - 32) =      9.07927  eV     1   --> A'             
     e( 33 - 33) =     10.20123  eV     1   --> A'             
     e( 34 - 34) =     10.65988  eV     1   --> A''            
     e( 35 - 35) =     10.89955  eV     1   --> A'             
     e( 36 - 36) =     11.07961  eV     1   --> A'             
     e( 37 - 37) =     11.72516  eV     1   --> A''            
     e( 38 - 38) =     12.07038  eV     1   --> A'             
     e( 39 - 39) =     12.51939  eV     1   --> A'             
     e( 40 - 40) =     13.33878  eV     1   --> A''            

 **************************************************************************

 **************************************************************************

                    xk=(  -0.23000,  -0.13279,   0.00000  )

     Band symmetry, C_s (m)     point group:

     e(  1 -  1) =    -69.75943  eV     1   --> A'             
     e(  2 -  2) =    -69.16040  eV     1   --> A'             
     e(  3 -  3) =    -69.15972  eV     1   --> A'             
     e(  4 -  4) =    -36.51086  eV     1   --> A'             
     e(  5 -  5) =    -36.50788  eV     1   --> A''            
     e(  6 -  6) =    -36.50712  eV     1   --> A'             
     e(  7 -  7) =    -35.91444  eV     1   --> A''            
     e(  8 -  8) =    -35.91353  eV     1   --> A'             
     e(  9 -  9) =    -35.91179  eV     1   --> A'             
     e( 10 - 10) =    -35.91048  eV     1   --> A''            
     e( 11 - 11) =    -35.90851  eV     1   --> A'             
     e( 12 - 12) =    -35.90738  eV     1   --> A'             
     e( 13 - 13) =    -14.73019  eV     1   --> A'             
     e( 14 - 14) =    -14.72778  eV     1   --> A''            
     e( 15 - 15) =    -14.72618  eV     1   --> A'             
     e( 16 - 16) =    -14.72413  eV     1   --> A''            
     e( 17 - 17) =    -14.71604  eV     1   --> A'             
     e( 18 - 18) =    -14.71496  eV     1   --> A'             
     e( 19 - 19) =    -14.69698  eV     1   --> A'             
     e( 20 - 20) =    -14.69623  eV     1   --> A''            
     e( 21 - 21) =    -14.68960  eV     1   --> A'             
     e( 22 - 22) =    -14.68673  eV     1   --> A''            
     e( 23 - 23) =     -3.71015  eV     1   --> A'             
     e( 24 - 24) =     -2.98166  eV     1   --> A'             
     e( 25 - 25) =      3.07084  eV     1   --> A'             
     e( 26 - 26) =      4.27927  eV     1   --> A'             
     e( 27 - 27) =      4.95978  eV     1   --> A'             
     e( 28 - 28) =      5.75959  eV     1   --> A''            
     e( 29 - 29) =      6.92231  eV     1   --> A'             
     e( 30 - 30) =      7.03402  eV     1   --> A''            
     e( 31 - 31) =      8.53011  eV     1   --> A'             
     e( 32 - 32) =      9.10220  eV     1   --> A'             
     e( 33 - 33) =     10.17546  eV     1   --> A'             
     e( 34 - 34) =     10.63563  eV     1   --> A''            
     e( 35 - 35) =     10.95265  eV     1   --> A'             
     e( 36 - 36) =     11.13696  eV     1   --> A'             
     e( 37 - 37) =     11.80449  eV     1   --> A''            
     e( 38 - 38) =     12.09227  eV     1   --> A'             
     e( 39 - 39) =     12.60087  eV     1   --> A'             
     e( 40 - 40) =     13.43910  eV     1   --> A''            

 **************************************************************************

 **************************************************************************

                    xk=(  -0.24000,  -0.13856,   0.00000  )

     Band symmetry, C_s (m)     point group:

     e(  1 -  1) =    -69.75942  eV     1   --> A'             
     e(  2 -  2) =    -69.16039  eV     1   --> A'             
     e(  3 -  3) =    -69.15971  eV     1   --> A'             
     e(  4 -  4) =    -36.51070  eV     1   --> A'             
     e(  5 -  5) =    -36.50775  eV     1   --> A''            
     e(  6 -  6) =    -36.50706  eV     1   --> A'             
     e(  7 -  7) =    -35.91426  eV     1   --> A''            
     e(  8 -  8) =    -35.91351  eV     1   --> A'             
     e(  9 -  9) =    -35.91174  eV     1   --> A'             
     e( 10 - 10) =    -35.91041  eV     1   --> A''            
     e( 11 - 11) =    -35.90822  eV     1   --> A'             
     e( 12 - 12) =    -35.90732  eV     1   --> A'             
     e( 13 - 13) =    -14.73034  eV     1   --> A'             
     e( 14 - 14) =    -14.72776  eV     1   --> A''            
     e( 15 - 15) =    -14.72616  eV     1   --> A'             
     e( 16 - 16) =    -14.72396  eV     1   --> A''            
     e( 17 - 17) =    -14.71595  eV     1   --> A'             
     e( 18 - 18) =    -14.71485  eV     1   --> A'             
     e( 19 - 19) =    -14.69687  eV     1   --> A'             
     e( 20 - 20) =    -14.69610  eV     1   --> A''            
     e( 21 - 21) =    -14.68971  eV     1   --> A'             
     e( 22 - 22) =    -14.68661  eV     1   --> A''            
     e( 23 - 23) =     -3.68928  eV     1   --> A'             
     e( 24 - 24) =     -2.97474  eV     1   --> A'             
     e( 25 - 25) =      3.10853  eV     1   --> A'             
     e( 26 - 26) =      4.18440  eV     1   --> A'             
     e( 27 - 27) =      4.88035  eV     1   --> A'             
     e( 28 - 28) =      5.72425  eV     1   --> A''            
     e( 29 - 29) =      6.86608  eV     1   --> A'             
     e( 30 - 30) =      7.01571  eV     1   --> A''            
     e( 31 - 31) =      8.47024  eV     1   --> A'             
     e( 32 - 32) =      9.11905  eV     1   --> A'             
     e( 33 - 33) =     10.14635  eV     1   --> A'             
     e( 34 - 34) =     10.61028  eV     1   --> A''            
     e( 35 - 35) =     10.97998  eV     1   --> A'             
     e( 36 - 36) =     11.23339  eV     1   --> A'             
     e( 37 - 37) =     11.88931  eV     1   --> A''            
     e( 38 - 38) =     12.11151  eV     1   --> A'             
     e( 39 - 39) =     12.69453  eV     1   --> A'             
     e( 40 - 40) =     13.54198  eV     1   --> A''            

 **************************************************************************

 **************************************************************************

                    xk=(  -0.25000,  -0.14434,   0.00000  )

     Band symmetry, C_s (m)     point group:

     e(  1 -  1) =    -69.75942  eV     1   --> A'             
     e(  2 -  2) =    -69.16038  eV     1   --> A'             
     e(  3 -  3) =    -69.15972  eV     1   --> A'             
     e(  4 -  4) =    -36.51069  eV     1   --> A'             
     e(  5 -  5) =    -36.50776  eV     1   --> A''            
     e(  6 -  6) =    -36.50705  eV     1   --> A'             
     e(  7 -  7) =    -35.91430  eV     1   --> A''            
     e(  8 -  8) =    -35.91352  eV     1   --> A'             
     e(  9 -  9) =    -35.91177  eV     1   --> A'             
     e( 10 - 10) =    -35.91039  eV     1   --> A''            
     e( 11 - 11) =    -35.90815  eV     1   --> A'             
     e( 12 - 12) =    -35.90729  eV     1   --> A'             
     e( 13 - 13) =    -14.73049  eV     1   --> A'             
     e( 14 - 14) =    -14.72775  eV     1   --> A''            
     e( 15 - 15) =    -14.72614  eV     1   --> A'             
     e( 16 - 16) =    -14.72380  eV     1   --> A''            
     e( 17 - 17) =    -14.71587  eV     1   --> A'             
     e( 18 - 18) =    -14.71474  eV     1   --> A'             
     e( 19 - 19) =    -14.69677  eV     1   --> A'             
     e( 20 - 20) =    -14.69595  eV     1   --> A''            
     e( 21 - 21) =    -14.68983  eV     1   --> A'             
     e( 22 - 22) =    -14.68651  eV     1   --> A''            
     e( 23 - 23) =     -3.66791  eV     1   --> A'             
     e( 24 - 24) =     -2.96797  eV     1   --> A'             
     e( 25 - 25) =      3.14740  eV     1   --> A'             
     e( 26 - 26) =      4.09235  eV     1   --> A'             
     e( 27 - 27) =      4.80284  eV     1   --> A'             
     e( 28 - 28) =      5.68972  eV     1   --> A''            
     e( 29 - 29) =      6.80722  eV     1   --> A'             
     e( 30 - 30) =      6.99703  eV     1   --> A''            
     e( 31 - 31) =      8.41161  eV     1   --> A'             
     e( 32 - 32) =      9.13033  eV     1   --> A'             
     e( 33 - 33) =     10.11524  eV     1   --> A'             
     e( 34 - 34) =     10.58413  eV     1   --> A''            
     e( 35 - 35) =     11.00043  eV     1   --> A'             
     e( 36 - 36) =     11.34563  eV     1   --> A'             
     e( 37 - 37) =     11.97901  eV     1   --> A''            
     e( 38 - 38) =     12.13113  eV     1   --> A'             
     e( 39 - 39) =     12.79761  eV     1   --> A'             
     e( 40 - 40) =     13.64706  eV     1   --> A''            

 **************************************************************************

 **************************************************************************

                    xk=(  -0.26000,  -0.15011,   0.00000  )

     Band symmetry, C_s (m)     point group:

     e(  1 -  1) =    -69.75943  eV     1   --> A'             
     e(  2 -  2) =    -69.16039  eV     1   --> A'             
     e(  3 -  3) =    -69.15974  eV     1   --> A'             
     e(  4 -  4) =    -36.51073  eV     1   --> A'             
     e(  5 -  5) =    -36.50791  eV     1   --> A''            
     e(  6 -  6) =    -36.50735  eV     1   --> A'             
     e(  7 -  7) =    -35.91450  eV     1   --> A''            
     e(  8 -  8) =    -35.91383  eV     1   --> A'             
     e(  9 -  9) =    -35.91193  eV     1   --> A'             
     e( 10 - 10) =    -35.91049  eV     1   --> A''            
     e( 11 - 11) =    -35.90828  eV     1   --> A'             
     e( 12 - 12) =    -35.90739  eV     1   --> A'             
     e( 13 - 13) =    -14.73065  eV     1   --> A'             
     e( 14 - 14) =    -14.72775  eV     1   --> A''            
     e( 15 - 15) =    -14.72613  eV     1   --> A'             
     e( 16 - 16) =    -14.72365  eV     1   --> A''            
     e( 17 - 17) =    -14.71578  eV     1   --> A'             
     e( 18 - 18) =    -14.71464  eV     1   --> A'             
     e( 19 - 19) =    -14.69666  eV     1   --> A'             
     e( 20 - 20) =    -14.69583  eV     1   --> A''            
     e( 21 - 21) =    -14.68995  eV     1   --> A'             
     e( 22 - 22) =    -14.68641  eV     1   --> A''            
     e( 23 - 23) =     -3.64610  eV     1   --> A'             
     e( 24 - 24) =     -2.96142  eV     1   --> A'             
     e( 25 - 25) =      3.18728  eV     1   --> A'             
     e( 26 - 26) =      4.00318  eV     1   --> A'             
     e( 27 - 27) =      4.72716  eV     1   --> A'             
     e( 28 - 28) =      5.65611  eV     1   --> A''            
     e( 29 - 29) =      6.74579  eV     1   --> A'             
     e( 30 - 30) =      6.97810  eV     1   --> A''            
     e( 31 - 31) =      8.35434  eV     1   --> A'             
     e( 32 - 32) =      9.13658  eV     1   --> A'             
     e( 33 - 33) =     10.08278  eV     1   --> A'             
     e( 34 - 34) =     10.55758  eV     1   --> A''            
     e( 35 - 35) =     11.02283  eV     1   --> A'             
     e( 36 - 36) =     11.46207  eV     1   --> A'             
     e( 37 - 37) =     12.07311  eV     1   --> A''            
     e( 38 - 38) =     12.15399  eV     1   --> A'             
     e( 39 - 39) =     12.90806  eV     1   --> A'             
     e( 40 - 40) =     13.75406  eV     1   --> A''            

 **************************************************************************

 **************************************************************************

                    xk=(  -0.27000,  -0.15588,   0.00000  )

     Band symmetry, C_s (m)     point group:

     e(  1 -  1) =    -69.75941  eV     1   --> A'             
     e(  2 -  2) =    -69.16037  eV     1   --> A'             
     e(  3 -  3) =    -69.15972  eV     1   --> A'             
     e(  4 -  4) =    -36.51065  eV     1   --> A'             
     e(  5 -  5) =    -36.50772  eV     1   --> A''            
     e(  6 -  6) =    -36.50672  eV     1   --> A'             
     e(  7 -  7) =    -35.91425  eV     1   --> A''            
     e(  8 -  8) =    -35.91326  eV     1   --> A'             
[...]
     e( 28 - 28) =      4.37798  eV     1   --> A              
     e( 29 - 29) =      6.48618  eV     1   --> A              
     e( 30 - 30) =      6.52620  eV     1   --> A              
     e( 31 - 31) =      8.86535  eV     1   --> A              
     e( 32 - 32) =      8.87535  eV     1   --> A              
     e( 33 - 33) =      9.92063  eV     1   --> A              
     e( 34 - 34) =      9.98274  eV     1   --> A              
     e( 35 - 35) =     11.82074  eV     1   --> A              
     e( 36 - 36) =     11.87806  eV     1   --> A              
     e( 37 - 37) =     12.75784  eV     1   --> A              
     e( 38 - 38) =     12.95716  eV     1   --> A              
     e( 39 - 39) =     13.08808  eV     1   --> A              
     e( 40 - 40) =     13.24809  eV     1   --> A              

 **************************************************************************

 **************************************************************************

                    xk=(  -0.64661,  -0.03464,  -0.31645  )

     Band symmetry, C_1 (1)     point group:

     e(  1 -  1) =    -69.75940  eV     1   --> A              
     e(  2 -  3) =    -69.16005  eV     2   -->   2 A              
     e(  4 -  4) =    -36.51095  eV     1   --> A              
     e(  5 -  5) =    -36.50730  eV     1   --> A              
     e(  6 -  6) =    -36.50690  eV     1   --> A              
     e(  7 -  7) =    -35.91347  eV     1   --> A              
     e(  8 -  9) =    -35.91317  eV     2   -->   2 A              
     e( 10 - 10) =    -35.91017  eV     1   --> A              
     e( 11 - 12) =    -35.90740  eV     2   -->   2 A              
     e( 13 - 13) =    -14.72986  eV     1   --> A              
     e( 14 - 15) =    -14.72740  eV     2   -->   2 A              
     e( 16 - 16) =    -14.72325  eV     1   --> A              
     e( 17 - 17) =    -14.71333  eV     1   --> A              
     e( 18 - 18) =    -14.71273  eV     1   --> A              
     e( 19 - 19) =    -14.69519  eV     1   --> A              
     e( 20 - 20) =    -14.69099  eV     1   --> A              
     e( 21 - 21) =    -14.69085  eV     1   --> A              
     e( 22 - 22) =    -14.68776  eV     1   --> A              
     e( 23 - 23) =     -3.01440  eV     1   --> A              
     e( 24 - 24) =     -2.99654  eV     1   --> A              
     e( 25 - 25) =      3.17436  eV     1   --> A              
     e( 26 - 26) =      3.26614  eV     1   --> A              
     e( 27 - 27) =      3.61940  eV     1   --> A              
     e( 28 - 28) =      4.36312  eV     1   --> A              
     e( 29 - 29) =      6.49330  eV     1   --> A              
     e( 30 - 30) =      6.52809  eV     1   --> A              
     e( 31 - 31) =      8.86940  eV     1   --> A              
     e( 32 - 32) =      8.88290  eV     1   --> A              
     e( 33 - 33) =      9.90528  eV     1   --> A              
     e( 34 - 34) =      9.96947  eV     1   --> A              
     e( 35 - 35) =     11.91428  eV     1   --> A              
     e( 36 - 36) =     11.95573  eV     1   --> A              
     e( 37 - 37) =     12.69969  eV     1   --> A              
     e( 38 - 38) =     12.91210  eV     1   --> A              
     e( 39 - 39) =     13.04413  eV     1   --> A              
     e( 40 - 40) =     13.19073  eV     1   --> A              

 **************************************************************************

 **************************************************************************

                    xk=(  -0.64994,  -0.02887,  -0.31645  )

     Band symmetry, C_1 (1)     point group:

     e(  1 -  1) =    -69.75942  eV     1   --> A              
     e(  2 -  3) =    -69.16007  eV     2   -->   2 A              
     e(  4 -  4) =    -36.51124  eV     1   --> A              
     e(  5 -  5) =    -36.50760  eV     1   --> A              
     e(  6 -  6) =    -36.50701  eV     1   --> A              
     e(  7 -  7) =    -35.91386  eV     1   --> A              
     e(  8 -  9) =    -35.91339  eV     2   -->   2 A              
     e( 10 - 10) =    -35.91026  eV     1   --> A              
     e( 11 - 11) =    -35.90772  eV     1   --> A              
     e( 12 - 12) =    -35.90758  eV     1   --> A              
     e( 13 - 13) =    -14.72983  eV     1   --> A              
     e( 14 - 15) =    -14.72743  eV     2   -->   2 A              
     e( 16 - 16) =    -14.72327  eV     1   --> A              
     e( 17 - 17) =    -14.71328  eV     1   --> A              
     e( 18 - 18) =    -14.71278  eV     1   --> A              
     e( 19 - 19) =    -14.69520  eV     1   --> A              
     e( 20 - 20) =    -14.69097  eV     1   --> A              
     e( 21 - 21) =    -14.69083  eV     1   --> A              
     e( 22 - 22) =    -14.68782  eV     1   --> A              
     e( 23 - 23) =     -3.01206  eV     1   --> A              
     e( 24 - 24) =     -2.99699  eV     1   --> A              
     e( 25 - 25) =      3.19405  eV     1   --> A              
     e( 26 - 26) =      3.26702  eV     1   --> A              
     e( 27 - 27) =      3.59323  eV     1   --> A              
     e( 28 - 28) =      4.35045  eV     1   --> A              
     e( 29 - 29) =      6.49984  eV     1   --> A              
     e( 30 - 30) =      6.52918  eV     1   --> A              
     e( 31 - 31) =      8.87320  eV     1   --> A              
     e( 32 - 32) =      8.88795  eV     1   --> A              
     e( 33 - 33) =      9.89233  eV     1   --> A              
     e( 34 - 34) =      9.95795  eV     1   --> A              
     e( 35 - 35) =     12.00461  eV     1   --> A              
     e( 36 - 36) =     12.03393  eV     1   --> A              
     e( 37 - 37) =     12.64214  eV     1   --> A              
     e( 38 - 38) =     12.87133  eV     1   --> A              
     e( 39 - 39) =     13.00266  eV     1   --> A              
     e( 40 - 40) =     13.13355  eV     1   --> A              

 **************************************************************************

 **************************************************************************

                    xk=(  -0.65327,  -0.02309,  -0.31645  )

     Band symmetry, C_1 (1)     point group:

     e(  1 -  1) =    -69.75942  eV     1   --> A              
     e(  2 -  3) =    -69.16007  eV     2   -->   2 A              
     e(  4 -  4) =    -36.51123  eV     1   --> A              
     e(  5 -  5) =    -36.50760  eV     1   --> A              
     e(  6 -  6) =    -36.50701  eV     1   --> A              
     e(  7 -  7) =    -35.91385  eV     1   --> A              
     e(  8 -  9) =    -35.91339  eV     2   -->   2 A              
     e( 10 - 10) =    -35.91027  eV     1   --> A              
     e( 11 - 11) =    -35.90772  eV     1   --> A              
     e( 12 - 12) =    -35.90757  eV     1   --> A              
     e( 13 - 13) =    -14.72980  eV     1   --> A              
     e( 14 - 15) =    -14.72744  eV     2   -->   2 A              
     e( 16 - 16) =    -14.72326  eV     1   --> A              
     e( 17 - 17) =    -14.71322  eV     1   --> A              
     e( 18 - 18) =    -14.71283  eV     1   --> A              
     e( 19 - 19) =    -14.69521  eV     1   --> A              
     e( 20 - 20) =    -14.69094  eV     1   --> A              
     e( 21 - 21) =    -14.69081  eV     1   --> A              
     e( 22 - 22) =    -14.68785  eV     1   --> A              
     e( 23 - 23) =     -3.00983  eV     1   --> A              
     e( 24 - 24) =     -2.99763  eV     1   --> A              
     e( 25 - 25) =      3.21261  eV     1   --> A              
     e( 26 - 26) =      3.26718  eV     1   --> A              
     e( 27 - 27) =      3.57035  eV     1   --> A              
     e( 28 - 28) =      4.34015  eV     1   --> A              
     e( 29 - 29) =      6.50587  eV     1   --> A              
     e( 30 - 30) =      6.52966  eV     1   --> A              
     e( 31 - 31) =      8.87685  eV     1   --> A              
     e( 32 - 32) =      8.89155  eV     1   --> A              
     e( 33 - 33) =      9.88193  eV     1   --> A              
     e( 34 - 34) =      9.94869  eV     1   --> A              
     e( 35 - 35) =     12.08981  eV     1   --> A              
     e( 36 - 36) =     12.11170  eV     1   --> A              
     e( 37 - 37) =     12.58556  eV     1   --> A              
     e( 38 - 38) =     12.83696  eV     1   --> A              
     e( 39 - 39) =     12.96452  eV     1   --> A              
     e( 40 - 40) =     13.07732  eV     1   --> A              

 **************************************************************************

 **************************************************************************

                    xk=(  -0.65660,  -0.01732,  -0.31645  )

     Band symmetry, C_1 (1)     point group:

     e(  1 -  1) =    -69.75944  eV     1   --> A              
     e(  2 -  3) =    -69.16009  eV     2   -->   2 A              
     e(  4 -  4) =    -36.51133  eV     1   --> A              
     e(  5 -  5) =    -36.50767  eV     1   --> A              
     e(  6 -  6) =    -36.50755  eV     1   --> A              
     e(  7 -  7) =    -35.91396  eV     1   --> A              
     e(  8 -  9) =    -35.91364  eV     2   -->   2 A              
     e( 10 - 10) =    -35.91067  eV     1   --> A              
     e( 11 - 11) =    -35.90785  eV     1   --> A              
     e( 12 - 12) =    -35.90773  eV     1   --> A              
     e( 13 - 13) =    -14.72979  eV     1   --> A              
     e( 14 - 15) =    -14.72745  eV     2   -->   2 A              
     e( 16 - 16) =    -14.72327  eV     1   --> A              
     e( 17 - 17) =    -14.71318  eV     1   --> A              
     e( 18 - 18) =    -14.71288  eV     1   --> A              
     e( 19 - 19) =    -14.69523  eV     1   --> A              
     e( 20 - 20) =    -14.69092  eV     1   --> A              
     e( 21 - 21) =    -14.69081  eV     1   --> A              
     e( 22 - 22) =    -14.68789  eV     1   --> A              
     e( 23 - 23) =     -3.00774  eV     1   --> A              
     e( 24 - 24) =     -2.99847  eV     1   --> A              
     e( 25 - 25) =      3.22910  eV     1   --> A              
     e( 26 - 26) =      3.26641  eV     1   --> A              
     e( 27 - 27) =      3.55066  eV     1   --> A              
     e( 28 - 28) =      4.33210  eV     1   --> A              
     e( 29 - 29) =      6.51126  eV     1   --> A              
     e( 30 - 30) =      6.52935  eV     1   --> A              
     e( 31 - 31) =      8.88009  eV     1   --> A              
     e( 32 - 32) =      8.89326  eV     1   --> A              
     e( 33 - 33) =      9.87391  eV     1   --> A              
     e( 34 - 34) =      9.94113  eV     1   --> A              
     e( 35 - 35) =     12.16631  eV     1   --> A              
     e( 36 - 36) =     12.18744  eV     1   --> A              
     e( 37 - 37) =     12.52987  eV     1   --> A              
     e( 38 - 38) =     12.81222  eV     1   --> A              
     e( 39 - 39) =     12.93068  eV     1   --> A              
     e( 40 - 40) =     13.02094  eV     1   --> A              

 **************************************************************************

 **************************************************************************

                    xk=(  -0.65994,  -0.01155,  -0.31645  )

     Band symmetry, C_1 (1)     point group:

     e(  1 -  1) =    -69.75944  eV     1   --> A              
     e(  2 -  3) =    -69.16009  eV     2   -->   2 A              
     e(  4 -  4) =    -36.51133  eV     1   --> A              
     e(  5 -  5) =    -36.50767  eV     1   --> A              
     e(  6 -  6) =    -36.50756  eV     1   --> A              
     e(  7 -  7) =    -35.91395  eV     1   --> A              
     e(  8 -  9) =    -35.91366  eV     2   -->   2 A              
     e( 10 - 10) =    -35.91067  eV     1   --> A              
     e( 11 - 11) =    -35.90786  eV     1   --> A              
     e( 12 - 12) =    -35.90773  eV     1   --> A              
     e( 13 - 13) =    -14.72977  eV     1   --> A              
     e( 14 - 15) =    -14.72744  eV     2   -->   2 A              
     e( 16 - 16) =    -14.72327  eV     1   --> A              
     e( 17 - 17) =    -14.71312  eV     1   --> A              
     e( 18 - 18) =    -14.71292  eV     1   --> A              
     e( 19 - 19) =    -14.69524  eV     1   --> A              
     e( 20 - 21) =    -14.69089  eV     2   -->   2 A              
     e( 22 - 22) =    -14.68791  eV     1   --> A              
     e( 23 - 23) =     -3.00577  eV     1   --> A              
     e( 24 - 24) =     -2.99952  eV     1   --> A              
     e( 25 - 25) =      3.24303  eV     1   --> A              
     e( 26 - 26) =      3.26490  eV     1   --> A              
     e( 27 - 27) =      3.53580  eV     1   --> A              
     e( 28 - 28) =      4.32643  eV     1   --> A              
     e( 29 - 29) =      6.51608  eV     1   --> A              
     e( 30 - 30) =      6.52828  eV     1   --> A              
     e( 31 - 31) =      8.88333  eV     1   --> A              
     e( 32 - 32) =      8.89353  eV     1   --> A              
     e( 33 - 33) =      9.86830  eV     1   --> A              
     e( 34 - 34) =      9.93596  eV     1   --> A              
     e( 35 - 35) =     12.22886  eV     1   --> A              
     e( 36 - 36) =     12.25907  eV     1   --> A              
     e( 37 - 37) =     12.47553  eV     1   --> A              
     e( 38 - 38) =     12.80207  eV     1   --> A              
     e( 39 - 39) =     12.90315  eV     1   --> A              
     e( 40 - 40) =     12.96661  eV     1   --> A              

 **************************************************************************

 **************************************************************************

                    xk=(  -0.66327,  -0.00577,  -0.31645  )

     Band symmetry, C_1 (1)     point group:

     e(  1 -  1) =    -69.75946  eV     1   --> A              
     e(  2 -  3) =    -69.16010  eV     2   -->   2 A              
     e(  4 -  4) =    -36.51184  eV     1   --> A              
     e(  5 -  5) =    -36.50797  eV     1   --> A              
     e(  6 -  6) =    -36.50779  eV     1   --> A              
     e(  7 -  9) =    -35.91409  eV     3   -->   3 A              
     e( 10 - 10) =    -35.91091  eV     1   --> A              
     e( 11 - 12) =    -35.90832  eV     2   -->   2 A              
     e( 13 - 13) =    -14.72977  eV     1   --> A              
     e( 14 - 15) =    -14.72745  eV     2   -->   2 A              
     e( 16 - 16) =    -14.72329  eV     1   --> A              
     e( 17 - 17) =    -14.71310  eV     1   --> A              
     e( 18 - 18) =    -14.71298  eV     1   --> A              
     e( 19 - 19) =    -14.69525  eV     1   --> A              
     e( 20 - 21) =    -14.69087  eV     2   -->   2 A              
     e( 22 - 22) =    -14.68794  eV     1   --> A              
     e( 23 - 23) =     -3.00395  eV     1   --> A              
     e( 24 - 24) =     -3.00078  eV     1   --> A              
     e( 25 - 25) =      3.25314  eV     1   --> A              
     e( 26 - 26) =      3.26207  eV     1   --> A              
     e( 27 - 27) =      3.52591  eV     1   --> A              
     e( 28 - 28) =      4.32294  eV     1   --> A              
     e( 29 - 29) =      6.52013  eV     1   --> A              
     e( 30 - 30) =      6.52635  eV     1   --> A              
     e( 31 - 31) =      8.88614  eV     1   --> A              
     e( 32 - 32) =      8.89206  eV     1   --> A              
     e( 33 - 33) =      9.86486  eV     1   --> A              
     e( 34 - 34) =      9.93244  eV     1   --> A              
     e( 35 - 35) =     12.27060  eV     1   --> A              
     e( 36 - 36) =     12.32291  eV     1   --> A              
     e( 37 - 37) =     12.42317  eV     1   --> A              
     e( 38 - 38) =     12.81230  eV     1   --> A              
     e( 39 - 39) =     12.88172  eV     1   --> A              
     e( 40 - 40) =     12.91632  eV     1   --> A              

 **************************************************************************

 **************************************************************************

                    xk=(  -0.66660,   0.00000,  -0.31645  )

     point group C_2  (2)   
     there are  2 classes
     the character table:

       E     C2   
A      1.00  1.00
B      1.00 -1.00

     the symmetry operations in each class and the name of the first element:

     E        1
                                                                 
     C2       2
                                                                 

     Band symmetry, C_2  (2)    point group:

     e(  1 -  1) =    -69.75948  eV     1   --> A              
     e(  2 -  3) =    -69.16011  eV     2   --> A              
     e(  2 -  3) =    -69.16011  eV     2   --> B              
     e(  4 -  4) =    -36.51234  eV     1   --> B              
     e(  5 -  6) =    -36.50798  eV     2   --> A              
     e(  5 -  6) =    -36.50798  eV     2   --> B              
     e(  7 -  8) =    -35.91425  eV     2   --> A              
     e(  7 -  8) =    -35.91425  eV     2   --> B              
     e(  9 -  9) =    -35.91412  eV     1   --> B              
     e( 10 - 10) =    -35.91101  eV     1   --> A              
     e( 11 - 12) =    -35.90865  eV     2   --> A              
     e( 11 - 12) =    -35.90865  eV     2   --> B              
     e( 13 - 13) =    -14.72978  eV     1   --> A              
     e( 14 - 15) =    -14.72744  eV     2   --> A              
     e( 14 - 15) =    -14.72744  eV     2   --> B              
     e( 16 - 16) =    -14.72329  eV     1   --> B              
     e( 17 - 18) =    -14.71306  eV     2   --> A              
     e( 17 - 18) =    -14.71306  eV     2   --> B              
     e( 19 - 19) =    -14.69525  eV     1   --> A              
     e( 20 - 21) =    -14.69086  eV     2   --> A              
     e( 20 - 21) =    -14.69086  eV     2   --> B              
     e( 22 - 22) =    -14.68795  eV     1   --> B              
     e( 23 - 24) =     -3.00229  eV     2   --> A              
     e( 23 - 24) =     -3.00229  eV     2   --> B              
     e( 25 - 26) =      3.25879  eV     2   --> A              
     e( 25 - 26) =      3.25879  eV     2   --> B              
     e( 27 - 27) =      3.52248  eV     1   --> A              
     e( 28 - 28) =      4.32175  eV     1   --> B              
     e( 29 - 30) =      6.52352  eV     2   --> A              
     e( 29 - 30) =      6.52352  eV     2   --> B              
     e( 31 - 32) =      8.88908  eV     2   --> A              
     e( 31 - 32) =      8.88908  eV     2   --> B              
     e( 33 - 33) =      9.86371  eV     1   --> B              
     e( 34 - 34) =      9.93089  eV     1   --> A              
     e( 35 - 35) =     12.28546  eV     1   --> B              
     e( 36 - 36) =     12.37449  eV     1   --> B              
     e( 37 - 37) =     12.37537  eV     1   --> A              
     e( 38 - 38) =     12.84668  eV     1   --> A              
     e( 39 - 39) =     12.84762  eV     1   --> B              
     e( 40 - 40) =     12.89414  eV     1   --> A              

 **************************************************************************

     BANDS        :   7m37.48s CPU  15m46.12s WALL


   This run was terminated on:  10:43:48  23May2023            

=------------------------------------------------------------------------------=
   JOB DONE.
=------------------------------------------------------------------------------=
