
     Program PWSCF v.6.7MaX starts on 26Oct2023 at  8:29:57 

     This program is part of the open-source Quantum ESPRESSO suite
     for quantum simulation of materials; please cite
         "P. Giannozzi et al., J. Phys.:Condens. Matter 21 395502 (2009);
         "P. Giannozzi et al., J. Phys.:Condens. Matter 29 465901 (2017);
          URL http://www.quantum-espresso.org", 
     in publications or presentations arising from this work. More details at
     http://www.quantum-espresso.org/quote

     Parallel version (MPI), running on     4 processors

     MPI processes distributed on     1 nodes
     R & G space division:  proc/nbgrp/npool/nimage =       4
     Waiting for input...
     Reading input from standard input

     Current dimensions of program PWSCF are:
     Max number of different atomic species (ntypx) = 10
     Max number of k-points (npk) =  40000
     Max angular momentum in pseudopotentials (lmaxx) =  3

     Atomic positions and unit cell read from directory:
     ../out/m2.save/
     Atomic positions from file used, from input discarded

     file Bi.pbe-dn-rrkjus_psl.1.0.0.UPF: wavefunction(s)  5D renormalized
     file Mg.pbe-spnl-rrkjus_psl.1.0.0.UPF: wavefunction(s)  2P renormalized

     Subspace diagonalization in iterative solution of the eigenvalue problem:
     one sub-group per band group will be used
     scalapack distributed-memory algorithm (size of sub-group:  2*  2 procs)

     Message from routine setup:
     using ibrav=0 with symmetry is DISCOURAGED, use correct ibrav instead

     Parallelization info
     --------------------
     sticks:   dense  smooth     PW     G-vecs:    dense   smooth      PW
     Min         486     241     70                27690     9785    1522
     Max         487     243     71                27701     9790    1527
     Sum        1945     967    283               110773    39149    6099



     bravais-lattice index     =            0
     lattice parameter (alat)  =       8.8863  a.u.
     unit-cell volume          =     960.2083 (a.u.)^3
     number of atoms/cell      =            5
     number of atomic types    =            2
     number of electrons       =        60.00
     number of Kohn-Sham states=           40
     kinetic-energy cutoff     =      45.0000  Ry
     charge density cutoff     =     360.0000  Ry
     Exchange-correlation= PBE
                           (   1   4   3   4   0   0   0)

     celldm(1)=   8.886344  celldm(2)=   0.000000  celldm(3)=   0.000000
     celldm(4)=   0.000000  celldm(5)=   0.000000  celldm(6)=   0.000000

     crystal axes: (cart. coord. in units of alat)
               a(1) = (  -0.500000  -0.866025   0.000000 )  
               a(2) = (  -0.500000   0.866025   0.000000 )  
               a(3) = (   0.000000   0.000000  -1.580030 )  

     reciprocal axes: (cart. coord. in units 2 pi/alat)
               b(1) = ( -1.000000 -0.577350 -0.000000 )  
               b(2) = ( -1.000000  0.577350  0.000000 )  
               b(3) = ( -0.000000  0.000000 -0.632899 )  


     PseudoPot. # 1 for Bi read from file:
     ../pseudo/Bi.pbe-dn-rrkjus_psl.1.0.0.UPF
     MD5 check sum: f9abe7488ae443f53c935a63d0032572
     Pseudo is Ultrasoft + core correction, Zval = 15.0
     Generated using &quot;atomic&quot; code by A. Dal Corso  v.6.2.2
     Using radial grid of 1283 points,  6 beta functions with: 
                l(1) =   0
                l(2) =   0
                l(3) =   1
                l(4) =   1
                l(5) =   2
                l(6) =   2
     Q(r) pseudized with 0 coefficients 


     PseudoPot. # 2 for Mg read from file:
     ../pseudo/Mg.pbe-spnl-rrkjus_psl.1.0.0.UPF
     MD5 check sum: 9996ca2d31208a261ae42168ce6c5fae
     Pseudo is Ultrasoft + core correction, Zval = 10.0
     Generated using &quot;atomic&quot; code by A. Dal Corso  v.6.3
     Using radial grid of 1129 points,  4 beta functions with: 
                l(1) =   0
                l(2) =   0
                l(3) =   1
                l(4) =   1
     Q(r) pseudized with 0 coefficients 


     atomic species   valence    mass     pseudopotential
        Bi            15.00   208.98040     Bi( 1.00)
        Mg            10.00    24.30500     Mg( 1.00)

     12 Sym. Ops., with inversion, found


                                    s                        frac. trans.

      isym =  1     identity                                     

 cryst.   s( 1) = (     1          0          0      )
                  (     0          1          0      )
                  (     0          0          1      )

 cart.    s( 1) = (  1.0000000  0.0000000  0.0000000 )
                  (  0.0000000  1.0000000  0.0000000 )
                  (  0.0000000  0.0000000  1.0000000 )


      isym =  2     180 deg rotation - cart. axis [1,0,0]        

 cryst.   s( 2) = (     0          1          0      )
                  (     1          0          0      )
                  (     0          0         -1      )

 cart.    s( 2) = (  1.0000000  0.0000000  0.0000000 )
                  (  0.0000000 -1.0000000  0.0000000 )
                  (  0.0000000  0.0000000 -1.0000000 )


      isym =  3     120 deg rotation - cryst. axis [0,0,1]       

 cryst.   s( 3) = (    -1         -1          0      )
                  (     1          0          0      )
                  (     0          0          1      )

 cart.    s( 3) = ( -0.5000000 -0.8660254  0.0000000 )
                  (  0.8660254 -0.5000000  0.0000000 )
                  (  0.0000000  0.0000000  1.0000000 )


      isym =  4     120 deg rotation - cryst. axis [0,0,-1]      

 cryst.   s( 4) = (     0          1          0      )
                  (    -1         -1          0      )
                  (     0          0          1      )

 cart.    s( 4) = ( -0.5000000  0.8660254  0.0000000 )
                  ( -0.8660254 -0.5000000  0.0000000 )
                  (  0.0000000  0.0000000  1.0000000 )


      isym =  5     180 deg rotation - cryst. axis [0,1,0]       

 cryst.   s( 5) = (    -1         -1          0      )
                  (     0          1          0      )
                  (     0          0         -1      )

 cart.    s( 5) = ( -0.5000000 -0.8660254  0.0000000 )
                  ( -0.8660254  0.5000000  0.0000000 )
                  (  0.0000000  0.0000000 -1.0000000 )


      isym =  6     180 deg rotation - cryst. axis [1,1,0]       

 cryst.   s( 6) = (     1          0          0      )
                  (    -1         -1          0      )
                  (     0          0         -1      )

 cart.    s( 6) = ( -0.5000000  0.8660254  0.0000000 )
                  (  0.8660254  0.5000000  0.0000000 )
                  (  0.0000000  0.0000000 -1.0000000 )


      isym =  7     inversion                                    

 cryst.   s( 7) = (    -1          0          0      )
                  (     0         -1          0      )
                  (     0          0         -1      )

 cart.    s( 7) = ( -1.0000000  0.0000000  0.0000000 )
                  (  0.0000000 -1.0000000  0.0000000 )
                  (  0.0000000  0.0000000 -1.0000000 )


      isym =  8     inv. 180 deg rotation - cart. axis [1,0,0]   

 cryst.   s( 8) = (     0         -1          0      )
                  (    -1          0          0      )
                  (     0          0          1      )

 cart.    s( 8) = ( -1.0000000  0.0000000  0.0000000 )
                  (  0.0000000  1.0000000  0.0000000 )
                  (  0.0000000  0.0000000  1.0000000 )


      isym =  9     inv. 120 deg rotation - cryst. axis [0,0,1]  

 cryst.   s( 9) = (     1          1          0      )
                  (    -1          0          0      )
                  (     0          0         -1      )

 cart.    s( 9) = (  0.5000000  0.8660254  0.0000000 )
                  ( -0.8660254  0.5000000  0.0000000 )
                  (  0.0000000  0.0000000 -1.0000000 )


      isym = 10     inv. 120 deg rotation - cryst. axis [0,0,-1] 

 cryst.   s(10) = (     0         -1          0      )
                  (     1          1          0      )
                  (     0          0         -1      )

 cart.    s(10) = (  0.5000000 -0.8660254  0.0000000 )
                  (  0.8660254  0.5000000  0.0000000 )
                  (  0.0000000  0.0000000 -1.0000000 )


      isym = 11     inv. 180 deg rotation - cryst. axis [0,1,0]  

 cryst.   s(11) = (     1          1          0      )
                  (     0         -1          0      )
                  (     0          0          1      )

 cart.    s(11) = (  0.5000000  0.8660254  0.0000000 )
                  (  0.8660254 -0.5000000  0.0000000 )
                  (  0.0000000  0.0000000  1.0000000 )


      isym = 12     inv. 180 deg rotation - cryst. axis [1,1,0]  

 cryst.   s(12) = (    -1          0          0      )
                  (     1          1          0      )
                  (     0          0          1      )

 cart.    s(12) = (  0.5000000 -0.8660254  0.0000000 )
                  ( -0.8660254 -0.5000000  0.0000000 )
                  (  0.0000000  0.0000000  1.0000000 )


   Cartesian axes

     site n.     atom                  positions (alat units)
         1           Mg  tau(   1) = (   0.0000000   0.0000000   0.0000000  )
         2           Mg  tau(   2) = (  -0.5000000  -0.2886751  -0.5867145  )
         3           Mg  tau(   3) = (  -0.5000000   0.2886751  -0.9933158  )
         4           Bi  tau(   4) = (  -0.5000000  -0.2886751  -1.2306453  )
         5           Bi  tau(   5) = (  -0.5000000   0.2886751  -0.3493850  )

   Crystallographic axes

     site n.     atom                  positions (cryst. coord.)
         1           Mg  tau(   1) = ( -0.0000000  0.0000000  0.0000000  )
         2           Mg  tau(   2) = (  0.6666667  0.3333333  0.3713312  )
         3           Mg  tau(   3) = (  0.3333333  0.6666667  0.6286688  )
         4           Bi  tau(   4) = (  0.6666667  0.3333333  0.7788745  )
         5           Bi  tau(   5) = (  0.3333333  0.6666667  0.2211255  )

     number of k points=   351  Marzari-Vanderbilt smearing, width (Ry)=  0.0147
                       cart. coord. in units 2pi/alat
        k(    1) = (  -0.5000000  -0.2886751   0.0000000), wk =   0.0056980
        k(    2) = (  -0.4900000  -0.2829016   0.0000000), wk =   0.0056980
        k(    3) = (  -0.4800000  -0.2771281   0.0000000), wk =   0.0056980
        k(    4) = (  -0.4700000  -0.2713546   0.0000000), wk =   0.0056980
        k(    5) = (  -0.4600000  -0.2655811   0.0000000), wk =   0.0056980
        k(    6) = (  -0.4500000  -0.2598076   0.0000000), wk =   0.0056980
        k(    7) = (  -0.4400000  -0.2540341   0.0000000), wk =   0.0056980
        k(    8) = (  -0.4300000  -0.2482606   0.0000000), wk =   0.0056980
        k(    9) = (  -0.4200000  -0.2424871   0.0000000), wk =   0.0056980
        k(   10) = (  -0.4100000  -0.2367136   0.0000000), wk =   0.0056980
        k(   11) = (  -0.4000000  -0.2309401   0.0000000), wk =   0.0056980
        k(   12) = (  -0.3900000  -0.2251666   0.0000000), wk =   0.0056980
        k(   13) = (  -0.3800000  -0.2193931   0.0000000), wk =   0.0056980
        k(   14) = (  -0.3700000  -0.2136196   0.0000000), wk =   0.0056980
        k(   15) = (  -0.3600000  -0.2078461   0.0000000), wk =   0.0056980
        k(   16) = (  -0.3500000  -0.2020726   0.0000000), wk =   0.0056980
        k(   17) = (  -0.3400000  -0.1962991   0.0000000), wk =   0.0056980
        k(   18) = (  -0.3300000  -0.1905256   0.0000000), wk =   0.0056980
        k(   19) = (  -0.3200000  -0.1847521   0.0000000), wk =   0.0056980
        k(   20) = (  -0.3100000  -0.1789786   0.0000000), wk =   0.0056980
        k(   21) = (  -0.3000000  -0.1732051   0.0000000), wk =   0.0056980
        k(   22) = (  -0.2900000  -0.1674316   0.0000000), wk =   0.0056980
        k(   23) = (  -0.2800000  -0.1616581   0.0000000), wk =   0.0056980
        k(   24) = (  -0.2700000  -0.1558846   0.0000000), wk =   0.0056980
        k(   25) = (  -0.2600000  -0.1501111   0.0000000), wk =   0.0056980
        k(   26) = (  -0.2500000  -0.1443376   0.0000000), wk =   0.0056980
        k(   27) = (  -0.2400000  -0.1385641   0.0000000), wk =   0.0056980
        k(   28) = (  -0.2300000  -0.1327906   0.0000000), wk =   0.0056980
        k(   29) = (  -0.2200000  -0.1270171   0.0000000), wk =   0.0056980
        k(   30) = (  -0.2100000  -0.1212436   0.0000000), wk =   0.0056980
        k(   31) = (  -0.2000000  -0.1154701   0.0000000), wk =   0.0056980
        k(   32) = (  -0.1900000  -0.1096966   0.0000000), wk =   0.0056980
        k(   33) = (  -0.1800000  -0.1039230   0.0000000), wk =   0.0056980
        k(   34) = (  -0.1700000  -0.0981495   0.0000000), wk =   0.0056980
        k(   35) = (  -0.1600000  -0.0923760   0.0000000), wk =   0.0056980
        k(   36) = (  -0.1500000  -0.0866025   0.0000000), wk =   0.0056980
        k(   37) = (  -0.1400000  -0.0808290   0.0000000), wk =   0.0056980
        k(   38) = (  -0.1300000  -0.0750555   0.0000000), wk =   0.0056980
        k(   39) = (  -0.1200000  -0.0692820   0.0000000), wk =   0.0056980
        k(   40) = (  -0.1100000  -0.0635085   0.0000000), wk =   0.0056980
        k(   41) = (  -0.1000000  -0.0577350   0.0000000), wk =   0.0056980
        k(   42) = (  -0.0900000  -0.0519615   0.0000000), wk =   0.0056980
        k(   43) = (  -0.0800000  -0.0461880   0.0000000), wk =   0.0056980
        k(   44) = (  -0.0700000  -0.0404145   0.0000000), wk =   0.0056980
        k(   45) = (  -0.0600000  -0.0346410   0.0000000), wk =   0.0056980
        k(   46) = (  -0.0500000  -0.0288675   0.0000000), wk =   0.0056980
        k(   47) = (  -0.0400000  -0.0230940   0.0000000), wk =   0.0056980
        k(   48) = (  -0.0300000  -0.0173205   0.0000000), wk =   0.0056980
        k(   49) = (  -0.0200000  -0.0115470   0.0000000), wk =   0.0056980
        k(   50) = (  -0.0100000  -0.0057735   0.0000000), wk =   0.0056980
        k(   51) = (  -0.0000000   0.0000000   0.0000000), wk =   0.0056980
        k(   52) = (  -0.0133320   0.0000000   0.0000000), wk =   0.0056980
        k(   53) = (  -0.0266640   0.0000000   0.0000000), wk =   0.0056980
        k(   54) = (  -0.0399960   0.0000000   0.0000000), wk =   0.0056980
        k(   55) = (  -0.0533280   0.0000000   0.0000000), wk =   0.0056980
        k(   56) = (  -0.0666600   0.0000000   0.0000000), wk =   0.0056980
        k(   57) = (  -0.0799920   0.0000000   0.0000000), wk =   0.0056980
        k(   58) = (  -0.0933240   0.0000000   0.0000000), wk =   0.0056980
        k(   59) = (  -0.1066560   0.0000000   0.0000000), wk =   0.0056980
        k(   60) = (  -0.1199880   0.0000000   0.0000000), wk =   0.0056980
        k(   61) = (  -0.1333200   0.0000000   0.0000000), wk =   0.0056980
        k(   62) = (  -0.1466520   0.0000000   0.0000000), wk =   0.0056980
        k(   63) = (  -0.1599840   0.0000000   0.0000000), wk =   0.0056980
        k(   64) = (  -0.1733160   0.0000000   0.0000000), wk =   0.0056980
        k(   65) = (  -0.1866480   0.0000000   0.0000000), wk =   0.0056980
        k(   66) = (  -0.1999800   0.0000000   0.0000000), wk =   0.0056980
        k(   67) = (  -0.2133120   0.0000000   0.0000000), wk =   0.0056980
        k(   68) = (  -0.2266440   0.0000000   0.0000000), wk =   0.0056980
        k(   69) = (  -0.2399760   0.0000000   0.0000000), wk =   0.0056980
        k(   70) = (  -0.2533080   0.0000000   0.0000000), wk =   0.0056980
        k(   71) = (  -0.2666400   0.0000000   0.0000000), wk =   0.0056980
        k(   72) = (  -0.2799720   0.0000000   0.0000000), wk =   0.0056980
        k(   73) = (  -0.2933040   0.0000000   0.0000000), wk =   0.0056980
        k(   74) = (  -0.3066360   0.0000000   0.0000000), wk =   0.0056980
        k(   75) = (  -0.3199680   0.0000000   0.0000000), wk =   0.0056980
        k(   76) = (  -0.3333000   0.0000000   0.0000000), wk =   0.0056980
        k(   77) = (  -0.3466320   0.0000000   0.0000000), wk =   0.0056980
        k(   78) = (  -0.3599640   0.0000000   0.0000000), wk =   0.0056980
        k(   79) = (  -0.3732960   0.0000000   0.0000000), wk =   0.0056980
        k(   80) = (  -0.3866280   0.0000000   0.0000000), wk =   0.0056980
        k(   81) = (  -0.3999600   0.0000000   0.0000000), wk =   0.0056980
        k(   82) = (  -0.4132920   0.0000000   0.0000000), wk =   0.0056980
        k(   83) = (  -0.4266240   0.0000000   0.0000000), wk =   0.0056980
        k(   84) = (  -0.4399560   0.0000000   0.0000000), wk =   0.0056980
        k(   85) = (  -0.4532880   0.0000000   0.0000000), wk =   0.0056980
        k(   86) = (  -0.4666200   0.0000000   0.0000000), wk =   0.0056980
        k(   87) = (  -0.4799520   0.0000000   0.0000000), wk =   0.0056980
        k(   88) = (  -0.4932840   0.0000000   0.0000000), wk =   0.0056980
        k(   89) = (  -0.5066160   0.0000000   0.0000000), wk =   0.0056980
        k(   90) = (  -0.5199480   0.0000000   0.0000000), wk =   0.0056980
        k(   91) = (  -0.5332800   0.0000000   0.0000000), wk =   0.0056980
        k(   92) = (  -0.5466120   0.0000000   0.0000000), wk =   0.0056980
        k(   93) = (  -0.5599440   0.0000000   0.0000000), wk =   0.0056980
        k(   94) = (  -0.5732760   0.0000000   0.0000000), wk =   0.0056980
        k(   95) = (  -0.5866080   0.0000000   0.0000000), wk =   0.0056980
        k(   96) = (  -0.5999400   0.0000000   0.0000000), wk =   0.0056980
        k(   97) = (  -0.6132720   0.0000000   0.0000000), wk =   0.0056980
        k(   98) = (  -0.6266040   0.0000000   0.0000000), wk =   0.0056980
        k(   99) = (  -0.6399360   0.0000000   0.0000000), wk =   0.0056980
        k(  100) = (  -0.6532680   0.0000000   0.0000000), wk =   0.0056980
        k(  101) = (  -0.6666000   0.0000000   0.0000000), wk =   0.0056980
        k(  102) = (  -0.6532680   0.0000000   0.0000000), wk =   0.0056980
        k(  103) = (  -0.6399360   0.0000000   0.0000000), wk =   0.0056980
        k(  104) = (  -0.6266040   0.0000000   0.0000000), wk =   0.0056980
        k(  105) = (  -0.6132720   0.0000000   0.0000000), wk =   0.0056980
        k(  106) = (  -0.5999400   0.0000000   0.0000000), wk =   0.0056980
        k(  107) = (  -0.5866080   0.0000000   0.0000000), wk =   0.0056980
        k(  108) = (  -0.5732760   0.0000000   0.0000000), wk =   0.0056980
        k(  109) = (  -0.5599440   0.0000000   0.0000000), wk =   0.0056980
        k(  110) = (  -0.5466120   0.0000000   0.0000000), wk =   0.0056980
        k(  111) = (  -0.5332800   0.0000000   0.0000000), wk =   0.0056980
        k(  112) = (  -0.5199480   0.0000000   0.0000000), wk =   0.0056980
        k(  113) = (  -0.5066160   0.0000000   0.0000000), wk =   0.0056980
        k(  114) = (  -0.4932840   0.0000000   0.0000000), wk =   0.0056980
        k(  115) = (  -0.4799520   0.0000000   0.0000000), wk =   0.0056980
        k(  116) = (  -0.4666200   0.0000000   0.0000000), wk =   0.0056980
        k(  117) = (  -0.4532880   0.0000000   0.0000000), wk =   0.0056980
        k(  118) = (  -0.4399560   0.0000000   0.0000000), wk =   0.0056980
        k(  119) = (  -0.4266240   0.0000000   0.0000000), wk =   0.0056980
        k(  120) = (  -0.4132920   0.0000000   0.0000000), wk =   0.0056980
        k(  121) = (  -0.3999600   0.0000000   0.0000000), wk =   0.0056980
        k(  122) = (  -0.3866280   0.0000000   0.0000000), wk =   0.0056980
        k(  123) = (  -0.3732960   0.0000000   0.0000000), wk =   0.0056980
        k(  124) = (  -0.3599640   0.0000000   0.0000000), wk =   0.0056980
        k(  125) = (  -0.3466320   0.0000000   0.0000000), wk =   0.0056980
        k(  126) = (  -0.3333000   0.0000000   0.0000000), wk =   0.0056980
        k(  127) = (  -0.3199680   0.0000000   0.0000000), wk =   0.0056980
        k(  128) = (  -0.3066360   0.0000000   0.0000000), wk =   0.0056980
        k(  129) = (  -0.2933040   0.0000000   0.0000000), wk =   0.0056980
        k(  130) = (  -0.2799720   0.0000000   0.0000000), wk =   0.0056980
        k(  131) = (  -0.2666400   0.0000000   0.0000000), wk =   0.0056980
        k(  132) = (  -0.2533080   0.0000000   0.0000000), wk =   0.0056980
        k(  133) = (  -0.2399760   0.0000000   0.0000000), wk =   0.0056980
        k(  134) = (  -0.2266440   0.0000000   0.0000000), wk =   0.0056980
        k(  135) = (  -0.2133120   0.0000000   0.0000000), wk =   0.0056980
        k(  136) = (  -0.1999800   0.0000000   0.0000000), wk =   0.0056980
        k(  137) = (  -0.1866480   0.0000000   0.0000000), wk =   0.0056980
        k(  138) = (  -0.1733160   0.0000000   0.0000000), wk =   0.0056980
        k(  139) = (  -0.1599840   0.0000000   0.0000000), wk =   0.0056980
        k(  140) = (  -0.1466520   0.0000000   0.0000000), wk =   0.0056980
        k(  141) = (  -0.1333200   0.0000000   0.0000000), wk =   0.0056980
        k(  142) = (  -0.1199880   0.0000000   0.0000000), wk =   0.0056980
        k(  143) = (  -0.1066560   0.0000000   0.0000000), wk =   0.0056980
        k(  144) = (  -0.0933240   0.0000000   0.0000000), wk =   0.0056980
        k(  145) = (  -0.0799920   0.0000000   0.0000000), wk =   0.0056980
        k(  146) = (  -0.0666600   0.0000000   0.0000000), wk =   0.0056980
        k(  147) = (  -0.0533280   0.0000000   0.0000000), wk =   0.0056980
        k(  148) = (  -0.0399960   0.0000000   0.0000000), wk =   0.0056980
        k(  149) = (  -0.0266640   0.0000000   0.0000000), wk =   0.0056980
        k(  150) = (  -0.0133320   0.0000000   0.0000000), wk =   0.0056980
        k(  151) = (  -0.0000000   0.0000000   0.0000000), wk =   0.0056980
        k(  152) = (  -0.0000000   0.0000000  -0.0063290), wk =   0.0056980
        k(  153) = (  -0.0000000   0.0000000  -0.0126580), wk =   0.0056980
        k(  154) = (  -0.0000000   0.0000000  -0.0189870), wk =   0.0056980
        k(  155) = (  -0.0000000   0.0000000  -0.0253160), wk =   0.0056980
        k(  156) = (  -0.0000000   0.0000000  -0.0316450), wk =   0.0056980
        k(  157) = (  -0.0000000   0.0000000  -0.0379740), wk =   0.0056980
        k(  158) = (  -0.0000000   0.0000000  -0.0443029), wk =   0.0056980
        k(  159) = (  -0.0000000   0.0000000  -0.0506319), wk =   0.0056980
        k(  160) = (  -0.0000000   0.0000000  -0.0569609), wk =   0.0056980
        k(  161) = (  -0.0000000   0.0000000  -0.0632899), wk =   0.0056980
        k(  162) = (  -0.0000000   0.0000000  -0.0696189), wk =   0.0056980
        k(  163) = (  -0.0000000   0.0000000  -0.0759479), wk =   0.0056980
        k(  164) = (  -0.0000000   0.0000000  -0.0822769), wk =   0.0056980
        k(  165) = (  -0.0000000   0.0000000  -0.0886059), wk =   0.0056980
        k(  166) = (  -0.0000000   0.0000000  -0.0949349), wk =   0.0056980
        k(  167) = (  -0.0000000   0.0000000  -0.1012639), wk =   0.0056980
        k(  168) = (  -0.0000000   0.0000000  -0.1075929), wk =   0.0056980
        k(  169) = (  -0.0000000   0.0000000  -0.1139219), wk =   0.0056980
        k(  170) = (  -0.0000000   0.0000000  -0.1202509), wk =   0.0056980
        k(  171) = (  -0.0000000   0.0000000  -0.1265799), wk =   0.0056980
        k(  172) = (  -0.0000000   0.0000000  -0.1329088), wk =   0.0056980
        k(  173) = (  -0.0000000   0.0000000  -0.1392378), wk =   0.0056980
        k(  174) = (  -0.0000000   0.0000000  -0.1455668), wk =   0.0056980
        k(  175) = (  -0.0000000   0.0000000  -0.1518958), wk =   0.0056980
        k(  176) = (  -0.0000000   0.0000000  -0.1582248), wk =   0.0056980
        k(  177) = (  -0.0000000   0.0000000  -0.1645538), wk =   0.0056980
        k(  178) = (  -0.0000000   0.0000000  -0.1708828), wk =   0.0056980
        k(  179) = (  -0.0000000   0.0000000  -0.1772118), wk =   0.0056980
        k(  180) = (  -0.0000000   0.0000000  -0.1835408), wk =   0.0056980
        k(  181) = (  -0.0000000   0.0000000  -0.1898698), wk =   0.0056980
        k(  182) = (  -0.0000000   0.0000000  -0.1961988), wk =   0.0056980
        k(  183) = (  -0.0000000   0.0000000  -0.2025278), wk =   0.0056980
        k(  184) = (  -0.0000000   0.0000000  -0.2088568), wk =   0.0056980
        k(  185) = (  -0.0000000   0.0000000  -0.2151857), wk =   0.0056980
        k(  186) = (  -0.0000000   0.0000000  -0.2215147), wk =   0.0056980
        k(  187) = (  -0.0000000   0.0000000  -0.2278437), wk =   0.0056980
        k(  188) = (  -0.0000000   0.0000000  -0.2341727), wk =   0.0056980
        k(  189) = (  -0.0000000   0.0000000  -0.2405017), wk =   0.0056980
        k(  190) = (  -0.0000000   0.0000000  -0.2468307), wk =   0.0056980
        k(  191) = (  -0.0000000   0.0000000  -0.2531597), wk =   0.0056980
        k(  192) = (  -0.0000000   0.0000000  -0.2594887), wk =   0.0056980
        k(  193) = (  -0.0000000   0.0000000  -0.2658177), wk =   0.0056980
        k(  194) = (  -0.0000000   0.0000000  -0.2721467), wk =   0.0056980
        k(  195) = (  -0.0000000   0.0000000  -0.2784757), wk =   0.0056980
        k(  196) = (  -0.0000000   0.0000000  -0.2848047), wk =   0.0056980
        k(  197) = (  -0.0000000   0.0000000  -0.2911337), wk =   0.0056980
        k(  198) = (  -0.0000000   0.0000000  -0.2974627), wk =   0.0056980
        k(  199) = (  -0.0000000   0.0000000  -0.3037916), wk =   0.0056980
        k(  200) = (  -0.0000000   0.0000000  -0.3101206), wk =   0.0056980
        k(  201) = (  -0.0000000   0.0000000  -0.3164496), wk =   0.0056980
        k(  202) = (  -0.0100000  -0.0057735  -0.3164496), wk =   0.0056980
        k(  203) = (  -0.0200000  -0.0115470  -0.3164496), wk =   0.0056980
        k(  204) = (  -0.0300000  -0.0173205  -0.3164496), wk =   0.0056980
        k(  205) = (  -0.0400000  -0.0230940  -0.3164496), wk =   0.0056980
        k(  206) = (  -0.0500000  -0.0288675  -0.3164496), wk =   0.0056980
        k(  207) = (  -0.0600000  -0.0346410  -0.3164496), wk =   0.0056980
        k(  208) = (  -0.0700000  -0.0404145  -0.3164496), wk =   0.0056980
        k(  209) = (  -0.0800000  -0.0461880  -0.3164496), wk =   0.0056980
        k(  210) = (  -0.0900000  -0.0519615  -0.3164496), wk =   0.0056980
        k(  211) = (  -0.1000000  -0.0577350  -0.3164496), wk =   0.0056980
        k(  212) = (  -0.1100000  -0.0635085  -0.3164496), wk =   0.0056980
        k(  213) = (  -0.1200000  -0.0692820  -0.3164496), wk =   0.0056980
        k(  214) = (  -0.1300000  -0.0750555  -0.3164496), wk =   0.0056980
        k(  215) = (  -0.1400000  -0.0808290  -0.3164496), wk =   0.0056980
        k(  216) = (  -0.1500000  -0.0866025  -0.3164496), wk =   0.0056980
        k(  217) = (  -0.1600000  -0.0923760  -0.3164496), wk =   0.0056980
        k(  218) = (  -0.1700000  -0.0981495  -0.3164496), wk =   0.0056980
        k(  219) = (  -0.1800000  -0.1039230  -0.3164496), wk =   0.0056980
        k(  220) = (  -0.1900000  -0.1096966  -0.3164496), wk =   0.0056980
        k(  221) = (  -0.2000000  -0.1154701  -0.3164496), wk =   0.0056980
        k(  222) = (  -0.2100000  -0.1212436  -0.3164496), wk =   0.0056980
        k(  223) = (  -0.2200000  -0.1270171  -0.3164496), wk =   0.0056980
        k(  224) = (  -0.2300000  -0.1327906  -0.3164496), wk =   0.0056980
        k(  225) = (  -0.2400000  -0.1385641  -0.3164496), wk =   0.0056980
        k(  226) = (  -0.2500000  -0.1443376  -0.3164496), wk =   0.0056980
        k(  227) = (  -0.2600000  -0.1501111  -0.3164496), wk =   0.0056980
        k(  228) = (  -0.2700000  -0.1558846  -0.3164496), wk =   0.0056980
        k(  229) = (  -0.2800000  -0.1616581  -0.3164496), wk =   0.0056980
        k(  230) = (  -0.2900000  -0.1674316  -0.3164496), wk =   0.0056980
        k(  231) = (  -0.3000000  -0.1732051  -0.3164496), wk =   0.0056980
        k(  232) = (  -0.3100000  -0.1789786  -0.3164496), wk =   0.0056980
        k(  233) = (  -0.3200000  -0.1847521  -0.3164496), wk =   0.0056980
        k(  234) = (  -0.3300000  -0.1905256  -0.3164496), wk =   0.0056980
        k(  235) = (  -0.3400000  -0.1962991  -0.3164496), wk =   0.0056980
        k(  236) = (  -0.3500000  -0.2020726  -0.3164496), wk =   0.0056980
        k(  237) = (  -0.3600000  -0.2078461  -0.3164496), wk =   0.0056980
        k(  238) = (  -0.3700000  -0.2136196  -0.3164496), wk =   0.0056980
        k(  239) = (  -0.3800000  -0.2193931  -0.3164496), wk =   0.0056980
        k(  240) = (  -0.3900000  -0.2251666  -0.3164496), wk =   0.0056980
        k(  241) = (  -0.4000000  -0.2309401  -0.3164496), wk =   0.0056980
        k(  242) = (  -0.4100000  -0.2367136  -0.3164496), wk =   0.0056980
        k(  243) = (  -0.4200000  -0.2424871  -0.3164496), wk =   0.0056980
        k(  244) = (  -0.4300000  -0.2482606  -0.3164496), wk =   0.0056980
        k(  245) = (  -0.4400000  -0.2540341  -0.3164496), wk =   0.0056980
        k(  246) = (  -0.4500000  -0.2598076  -0.3164496), wk =   0.0056980
        k(  247) = (  -0.4600000  -0.2655811  -0.3164496), wk =   0.0056980
        k(  248) = (  -0.4700000  -0.2713546  -0.3164496), wk =   0.0056980
        k(  249) = (  -0.4800000  -0.2771281  -0.3164496), wk =   0.0056980
        k(  250) = (  -0.4900000  -0.2829016  -0.3164496), wk =   0.0056980
        k(  251) = (  -0.5000000  -0.2886751  -0.3164496), wk =   0.0056980
        k(  252) = (  -0.5033320  -0.2829016  -0.3164496), wk =   0.0056980
        k(  253) = (  -0.5066640  -0.2771281  -0.3164496), wk =   0.0056980
        k(  254) = (  -0.5099960  -0.2713546  -0.3164496), wk =   0.0056980
        k(  255) = (  -0.5133280  -0.2655811  -0.3164496), wk =   0.0056980
        k(  256) = (  -0.5166600  -0.2598076  -0.3164496), wk =   0.0056980
        k(  257) = (  -0.5199920  -0.2540341  -0.3164496), wk =   0.0056980
        k(  258) = (  -0.5233240  -0.2482606  -0.3164496), wk =   0.0056980
        k(  259) = (  -0.5266560  -0.2424871  -0.3164496), wk =   0.0056980
        k(  260) = (  -0.5299880  -0.2367136  -0.3164496), wk =   0.0056980
        k(  261) = (  -0.5333200  -0.2309401  -0.3164496), wk =   0.0056980
        k(  262) = (  -0.5366520  -0.2251666  -0.3164496), wk =   0.0056980
        k(  263) = (  -0.5399840  -0.2193931  -0.3164496), wk =   0.0056980
        k(  264) = (  -0.5433160  -0.2136196  -0.3164496), wk =   0.0056980
        k(  265) = (  -0.5466480  -0.2078461  -0.3164496), wk =   0.0056980
        k(  266) = (  -0.5499800  -0.2020726  -0.3164496), wk =   0.0056980
        k(  267) = (  -0.5533120  -0.1962991  -0.3164496), wk =   0.0056980
        k(  268) = (  -0.5566440  -0.1905256  -0.3164496), wk =   0.0056980
        k(  269) = (  -0.5599760  -0.1847521  -0.3164496), wk =   0.0056980
        k(  270) = (  -0.5633080  -0.1789786  -0.3164496), wk =   0.0056980
        k(  271) = (  -0.5666400  -0.1732051  -0.3164496), wk =   0.0056980
        k(  272) = (  -0.5699720  -0.1674316  -0.3164496), wk =   0.0056980
        k(  273) = (  -0.5733040  -0.1616581  -0.3164496), wk =   0.0056980
        k(  274) = (  -0.5766360  -0.1558846  -0.3164496), wk =   0.0056980
        k(  275) = (  -0.5799680  -0.1501111  -0.3164496), wk =   0.0056980
        k(  276) = (  -0.5833000  -0.1443376  -0.3164496), wk =   0.0056980
        k(  277) = (  -0.5866320  -0.1385641  -0.3164496), wk =   0.0056980
        k(  278) = (  -0.5899640  -0.1327906  -0.3164496), wk =   0.0056980
        k(  279) = (  -0.5932960  -0.1270171  -0.3164496), wk =   0.0056980
        k(  280) = (  -0.5966280  -0.1212436  -0.3164496), wk =   0.0056980
        k(  281) = (  -0.5999600  -0.1154701  -0.3164496), wk =   0.0056980
        k(  282) = (  -0.6032920  -0.1096966  -0.3164496), wk =   0.0056980
        k(  283) = (  -0.6066240  -0.1039230  -0.3164496), wk =   0.0056980
        k(  284) = (  -0.6099560  -0.0981495  -0.3164496), wk =   0.0056980
        k(  285) = (  -0.6132880  -0.0923760  -0.3164496), wk =   0.0056980
        k(  286) = (  -0.6166200  -0.0866025  -0.3164496), wk =   0.0056980
        k(  287) = (  -0.6199520  -0.0808290  -0.3164496), wk =   0.0056980
        k(  288) = (  -0.6232840  -0.0750555  -0.3164496), wk =   0.0056980
        k(  289) = (  -0.6266160  -0.0692820  -0.3164496), wk =   0.0056980
        k(  290) = (  -0.6299480  -0.0635085  -0.3164496), wk =   0.0056980
        k(  291) = (  -0.6332800  -0.0577350  -0.3164496), wk =   0.0056980
        k(  292) = (  -0.6366120  -0.0519615  -0.3164496), wk =   0.0056980
        k(  293) = (  -0.6399440  -0.0461880  -0.3164496), wk =   0.0056980
        k(  294) = (  -0.6432760  -0.0404145  -0.3164496), wk =   0.0056980
        k(  295) = (  -0.6466080  -0.0346410  -0.3164496), wk =   0.0056980
        k(  296) = (  -0.6499400  -0.0288675  -0.3164496), wk =   0.0056980
        k(  297) = (  -0.6532720  -0.0230940  -0.3164496), wk =   0.0056980
        k(  298) = (  -0.6566040  -0.0173205  -0.3164496), wk =   0.0056980
        k(  299) = (  -0.6599360  -0.0115470  -0.3164496), wk =   0.0056980
        k(  300) = (  -0.6632680  -0.0057735  -0.3164496), wk =   0.0056980
        k(  301) = (  -0.6666000   0.0000000  -0.3164496), wk =   0.0056980
        k(  302) = (  -0.6532680   0.0000000  -0.3164496), wk =   0.0056980
        k(  303) = (  -0.6399360   0.0000000  -0.3164496), wk =   0.0056980
        k(  304) = (  -0.6266040   0.0000000  -0.3164496), wk =   0.0056980
        k(  305) = (  -0.6132720   0.0000000  -0.3164496), wk =   0.0056980
        k(  306) = (  -0.5999400   0.0000000  -0.3164496), wk =   0.0056980
        k(  307) = (  -0.5866080   0.0000000  -0.3164496), wk =   0.0056980
        k(  308) = (  -0.5732760   0.0000000  -0.3164496), wk =   0.0056980
        k(  309) = (  -0.5599440   0.0000000  -0.3164496), wk =   0.0056980
        k(  310) = (  -0.5466120   0.0000000  -0.3164496), wk =   0.0056980
        k(  311) = (  -0.5332800   0.0000000  -0.3164496), wk =   0.0056980
        k(  312) = (  -0.5199480   0.0000000  -0.3164496), wk =   0.0056980
        k(  313) = (  -0.5066160   0.0000000  -0.3164496), wk =   0.0056980
        k(  314) = (  -0.4932840   0.0000000  -0.3164496), wk =   0.0056980
        k(  315) = (  -0.4799520   0.0000000  -0.3164496), wk =   0.0056980
        k(  316) = (  -0.4666200   0.0000000  -0.3164496), wk =   0.0056980
        k(  317) = (  -0.4532880   0.0000000  -0.3164496), wk =   0.0056980
        k(  318) = (  -0.4399560   0.0000000  -0.3164496), wk =   0.0056980
        k(  319) = (  -0.4266240   0.0000000  -0.3164496), wk =   0.0056980
        k(  320) = (  -0.4132920   0.0000000  -0.3164496), wk =   0.0056980
        k(  321) = (  -0.3999600   0.0000000  -0.3164496), wk =   0.0056980
        k(  322) = (  -0.3866280   0.0000000  -0.3164496), wk =   0.0056980
        k(  323) = (  -0.3732960   0.0000000  -0.3164496), wk =   0.0056980
        k(  324) = (  -0.3599640   0.0000000  -0.3164496), wk =   0.0056980
        k(  325) = (  -0.3466320   0.0000000  -0.3164496), wk =   0.0056980
        k(  326) = (  -0.3333000   0.0000000  -0.3164496), wk =   0.0056980
        k(  327) = (  -0.3199680   0.0000000  -0.3164496), wk =   0.0056980
        k(  328) = (  -0.3066360   0.0000000  -0.3164496), wk =   0.0056980
        k(  329) = (  -0.2933040   0.0000000  -0.3164496), wk =   0.0056980
        k(  330) = (  -0.2799720   0.0000000  -0.3164496), wk =   0.0056980
        k(  331) = (  -0.2666400   0.0000000  -0.3164496), wk =   0.0056980
        k(  332) = (  -0.2533080   0.0000000  -0.3164496), wk =   0.0056980
        k(  333) = (  -0.2399760   0.0000000  -0.3164496), wk =   0.0056980
        k(  334) = (  -0.2266440   0.0000000  -0.3164496), wk =   0.0056980
        k(  335) = (  -0.2133120   0.0000000  -0.3164496), wk =   0.0056980
        k(  336) = (  -0.1999800   0.0000000  -0.3164496), wk =   0.0056980
        k(  337) = (  -0.1866480   0.0000000  -0.3164496), wk =   0.0056980
        k(  338) = (  -0.1733160   0.0000000  -0.3164496), wk =   0.0056980
        k(  339) = (  -0.1599840   0.0000000  -0.3164496), wk =   0.0056980
        k(  340) = (  -0.1466520   0.0000000  -0.3164496), wk =   0.0056980
        k(  341) = (  -0.1333200   0.0000000  -0.3164496), wk =   0.0056980
        k(  342) = (  -0.1199880   0.0000000  -0.3164496), wk =   0.0056980
        k(  343) = (  -0.1066560   0.0000000  -0.3164496), wk =   0.0056980
        k(  344) = (  -0.0933240   0.0000000  -0.3164496), wk =   0.0056980
        k(  345) = (  -0.0799920   0.0000000  -0.3164496), wk =   0.0056980
        k(  346) = (  -0.0666600   0.0000000  -0.3164496), wk =   0.0056980
        k(  347) = (  -0.0533280   0.0000000  -0.3164496), wk =   0.0056980
        k(  348) = (  -0.0399960   0.0000000  -0.3164496), wk =   0.0056980
        k(  349) = (  -0.0266640   0.0000000  -0.3164496), wk =   0.0056980
        k(  350) = (  -0.0133320   0.0000000  -0.3164496), wk =   0.0056980
        k(  351) = (  -0.0000000   0.0000000  -0.3164496), wk =   0.0056980

                       cryst. coord.
        k(    1) = (   0.5000000   0.0000000  -0.0000000), wk =   0.0056980
        k(    2) = (   0.4900000   0.0000000  -0.0000000), wk =   0.0056980
        k(    3) = (   0.4800000   0.0000000  -0.0000000), wk =   0.0056980
        k(    4) = (   0.4700000   0.0000000  -0.0000000), wk =   0.0056980
        k(    5) = (   0.4600000  -0.0000000  -0.0000000), wk =   0.0056980
        k(    6) = (   0.4500000  -0.0000000  -0.0000000), wk =   0.0056980
        k(    7) = (   0.4400000   0.0000000  -0.0000000), wk =   0.0056980
        k(    8) = (   0.4300000   0.0000000  -0.0000000), wk =   0.0056980
        k(    9) = (   0.4200000   0.0000000  -0.0000000), wk =   0.0056980
        k(   10) = (   0.4100000   0.0000000  -0.0000000), wk =   0.0056980
        k(   11) = (   0.4000000  -0.0000000  -0.0000000), wk =   0.0056980
        k(   12) = (   0.3900000  -0.0000000  -0.0000000), wk =   0.0056980
        k(   13) = (   0.3800000   0.0000000  -0.0000000), wk =   0.0056980
        k(   14) = (   0.3700000   0.0000000  -0.0000000), wk =   0.0056980
        k(   15) = (   0.3600000   0.0000000  -0.0000000), wk =   0.0056980
        k(   16) = (   0.3500000   0.0000000  -0.0000000), wk =   0.0056980
        k(   17) = (   0.3400000  -0.0000000  -0.0000000), wk =   0.0056980
        k(   18) = (   0.3300000  -0.0000000  -0.0000000), wk =   0.0056980
        k(   19) = (   0.3200000   0.0000000  -0.0000000), wk =   0.0056980
        k(   20) = (   0.3100000   0.0000000  -0.0000000), wk =   0.0056980
        k(   21) = (   0.3000000   0.0000000  -0.0000000), wk =   0.0056980
        k(   22) = (   0.2900000   0.0000000  -0.0000000), wk =   0.0056980
        k(   23) = (   0.2800000  -0.0000000  -0.0000000), wk =   0.0056980
        k(   24) = (   0.2700000   0.0000000  -0.0000000), wk =   0.0056980
        k(   25) = (   0.2600000   0.0000000  -0.0000000), wk =   0.0056980
        k(   26) = (   0.2500000   0.0000000  -0.0000000), wk =   0.0056980
        k(   27) = (   0.2400000   0.0000000  -0.0000000), wk =   0.0056980
        k(   28) = (   0.2300000   0.0000000  -0.0000000), wk =   0.0056980
        k(   29) = (   0.2200000  -0.0000000  -0.0000000), wk =   0.0056980
        k(   30) = (   0.2100000   0.0000000  -0.0000000), wk =   0.0056980
        k(   31) = (   0.2000000  -0.0000000  -0.0000000), wk =   0.0056980
        k(   32) = (   0.1900000   0.0000000  -0.0000000), wk =   0.0056980
        k(   33) = (   0.1800000   0.0000000  -0.0000000), wk =   0.0056980
        k(   34) = (   0.1700000  -0.0000000  -0.0000000), wk =   0.0056980
        k(   35) = (   0.1600000   0.0000000  -0.0000000), wk =   0.0056980
        k(   36) = (   0.1500000   0.0000000  -0.0000000), wk =   0.0056980
        k(   37) = (   0.1400000  -0.0000000  -0.0000000), wk =   0.0056980
        k(   38) = (   0.1300000   0.0000000  -0.0000000), wk =   0.0056980
        k(   39) = (   0.1200000   0.0000000  -0.0000000), wk =   0.0056980
        k(   40) = (   0.1100000  -0.0000000  -0.0000000), wk =   0.0056980
        k(   41) = (   0.1000000  -0.0000000  -0.0000000), wk =   0.0056980
        k(   42) = (   0.0900000   0.0000000  -0.0000000), wk =   0.0056980
        k(   43) = (   0.0800000   0.0000000  -0.0000000), wk =   0.0056980
        k(   44) = (   0.0700000  -0.0000000  -0.0000000), wk =   0.0056980
        k(   45) = (   0.0600000   0.0000000  -0.0000000), wk =   0.0056980
        k(   46) = (   0.0500000  -0.0000000  -0.0000000), wk =   0.0056980
        k(   47) = (   0.0400000   0.0000000  -0.0000000), wk =   0.0056980
        k(   48) = (   0.0300000  -0.0000000  -0.0000000), wk =   0.0056980
        k(   49) = (   0.0200000   0.0000000  -0.0000000), wk =   0.0056980
        k(   50) = (   0.0100000   0.0000000  -0.0000000), wk =   0.0056980
        k(   51) = (   0.0000000   0.0000000   0.0000000), wk =   0.0056980
        k(   52) = (   0.0066660   0.0066660   0.0000000), wk =   0.0056980
        k(   53) = (   0.0133320   0.0133320   0.0000000), wk =   0.0056980
        k(   54) = (   0.0199980   0.0199980   0.0000000), wk =   0.0056980
        k(   55) = (   0.0266640   0.0266640   0.0000000), wk =   0.0056980
        k(   56) = (   0.0333300   0.0333300   0.0000000), wk =   0.0056980
        k(   57) = (   0.0399960   0.0399960   0.0000000), wk =   0.0056980
        k(   58) = (   0.0466620   0.0466620   0.0000000), wk =   0.0056980
        k(   59) = (   0.0533280   0.0533280   0.0000000), wk =   0.0056980
        k(   60) = (   0.0599940   0.0599940   0.0000000), wk =   0.0056980
        k(   61) = (   0.0666600   0.0666600   0.0000000), wk =   0.0056980
        k(   62) = (   0.0733260   0.0733260   0.0000000), wk =   0.0056980
        k(   63) = (   0.0799920   0.0799920   0.0000000), wk =   0.0056980
        k(   64) = (   0.0866580   0.0866580   0.0000000), wk =   0.0056980
        k(   65) = (   0.0933240   0.0933240   0.0000000), wk =   0.0056980
        k(   66) = (   0.0999900   0.0999900   0.0000000), wk =   0.0056980
        k(   67) = (   0.1066560   0.1066560   0.0000000), wk =   0.0056980
        k(   68) = (   0.1133220   0.1133220   0.0000000), wk =   0.0056980
        k(   69) = (   0.1199880   0.1199880   0.0000000), wk =   0.0056980
        k(   70) = (   0.1266540   0.1266540   0.0000000), wk =   0.0056980
        k(   71) = (   0.1333200   0.1333200   0.0000000), wk =   0.0056980
        k(   72) = (   0.1399860   0.1399860   0.0000000), wk =   0.0056980
        k(   73) = (   0.1466520   0.1466520   0.0000000), wk =   0.0056980
        k(   74) = (   0.1533180   0.1533180   0.0000000), wk =   0.0056980
        k(   75) = (   0.1599840   0.1599840   0.0000000), wk =   0.0056980
        k(   76) = (   0.1666500   0.1666500   0.0000000), wk =   0.0056980
        k(   77) = (   0.1733160   0.1733160   0.0000000), wk =   0.0056980
        k(   78) = (   0.1799820   0.1799820   0.0000000), wk =   0.0056980
        k(   79) = (   0.1866480   0.1866480   0.0000000), wk =   0.0056980
        k(   80) = (   0.1933140   0.1933140   0.0000000), wk =   0.0056980
        k(   81) = (   0.1999800   0.1999800   0.0000000), wk =   0.0056980
        k(   82) = (   0.2066460   0.2066460   0.0000000), wk =   0.0056980
        k(   83) = (   0.2133120   0.2133120   0.0000000), wk =   0.0056980
        k(   84) = (   0.2199780   0.2199780   0.0000000), wk =   0.0056980
        k(   85) = (   0.2266440   0.2266440   0.0000000), wk =   0.0056980
        k(   86) = (   0.2333100   0.2333100   0.0000000), wk =   0.0056980
        k(   87) = (   0.2399760   0.2399760   0.0000000), wk =   0.0056980
        k(   88) = (   0.2466420   0.2466420   0.0000000), wk =   0.0056980
        k(   89) = (   0.2533080   0.2533080   0.0000000), wk =   0.0056980
        k(   90) = (   0.2599740   0.2599740   0.0000000), wk =   0.0056980
        k(   91) = (   0.2666400   0.2666400   0.0000000), wk =   0.0056980
        k(   92) = (   0.2733060   0.2733060   0.0000000), wk =   0.0056980
        k(   93) = (   0.2799720   0.2799720   0.0000000), wk =   0.0056980
        k(   94) = (   0.2866380   0.2866380   0.0000000), wk =   0.0056980
        k(   95) = (   0.2933040   0.2933040   0.0000000), wk =   0.0056980
        k(   96) = (   0.2999700   0.2999700   0.0000000), wk =   0.0056980
        k(   97) = (   0.3066360   0.3066360   0.0000000), wk =   0.0056980
        k(   98) = (   0.3133020   0.3133020   0.0000000), wk =   0.0056980
        k(   99) = (   0.3199680   0.3199680   0.0000000), wk =   0.0056980
        k(  100) = (   0.3266340   0.3266340   0.0000000), wk =   0.0056980
        k(  101) = (   0.3333000   0.3333000   0.0000000), wk =   0.0056980
        k(  102) = (   0.3266340   0.3266340   0.0000000), wk =   0.0056980
        k(  103) = (   0.3199680   0.3199680   0.0000000), wk =   0.0056980
        k(  104) = (   0.3133020   0.3133020   0.0000000), wk =   0.0056980
        k(  105) = (   0.3066360   0.3066360   0.0000000), wk =   0.0056980
        k(  106) = (   0.2999700   0.2999700   0.0000000), wk =   0.0056980
        k(  107) = (   0.2933040   0.2933040   0.0000000), wk =   0.0056980
        k(  108) = (   0.2866380   0.2866380   0.0000000), wk =   0.0056980
        k(  109) = (   0.2799720   0.2799720   0.0000000), wk =   0.0056980
        k(  110) = (   0.2733060   0.2733060   0.0000000), wk =   0.0056980
        k(  111) = (   0.2666400   0.2666400   0.0000000), wk =   0.0056980
        k(  112) = (   0.2599740   0.2599740   0.0000000), wk =   0.0056980
        k(  113) = (   0.2533080   0.2533080   0.0000000), wk =   0.0056980
        k(  114) = (   0.2466420   0.2466420   0.0000000), wk =   0.0056980
        k(  115) = (   0.2399760   0.2399760   0.0000000), wk =   0.0056980
        k(  116) = (   0.2333100   0.2333100   0.0000000), wk =   0.0056980
        k(  117) = (   0.2266440   0.2266440   0.0000000), wk =   0.0056980
        k(  118) = (   0.2199780   0.2199780   0.0000000), wk =   0.0056980
        k(  119) = (   0.2133120   0.2133120   0.0000000), wk =   0.0056980
        k(  120) = (   0.2066460   0.2066460   0.0000000), wk =   0.0056980
        k(  121) = (   0.1999800   0.1999800   0.0000000), wk =   0.0056980
        k(  122) = (   0.1933140   0.1933140   0.0000000), wk =   0.0056980
        k(  123) = (   0.1866480   0.1866480   0.0000000), wk =   0.0056980
        k(  124) = (   0.1799820   0.1799820   0.0000000), wk =   0.0056980
        k(  125) = (   0.1733160   0.1733160   0.0000000), wk =   0.0056980
        k(  126) = (   0.1666500   0.1666500   0.0000000), wk =   0.0056980
        k(  127) = (   0.1599840   0.1599840   0.0000000), wk =   0.0056980
        k(  128) = (   0.1533180   0.1533180   0.0000000), wk =   0.0056980
        k(  129) = (   0.1466520   0.1466520   0.0000000), wk =   0.0056980
        k(  130) = (   0.1399860   0.1399860   0.0000000), wk =   0.0056980
        k(  131) = (   0.1333200   0.1333200   0.0000000), wk =   0.0056980
        k(  132) = (   0.1266540   0.1266540   0.0000000), wk =   0.0056980
        k(  133) = (   0.1199880   0.1199880   0.0000000), wk =   0.0056980
        k(  134) = (   0.1133220   0.1133220   0.0000000), wk =   0.0056980
        k(  135) = (   0.1066560   0.1066560   0.0000000), wk =   0.0056980
        k(  136) = (   0.0999900   0.0999900   0.0000000), wk =   0.0056980
        k(  137) = (   0.0933240   0.0933240   0.0000000), wk =   0.0056980
        k(  138) = (   0.0866580   0.0866580   0.0000000), wk =   0.0056980
        k(  139) = (   0.0799920   0.0799920   0.0000000), wk =   0.0056980
        k(  140) = (   0.0733260   0.0733260   0.0000000), wk =   0.0056980
        k(  141) = (   0.0666600   0.0666600   0.0000000), wk =   0.0056980
        k(  142) = (   0.0599940   0.0599940   0.0000000), wk =   0.0056980
        k(  143) = (   0.0533280   0.0533280   0.0000000), wk =   0.0056980
        k(  144) = (   0.0466620   0.0466620   0.0000000), wk =   0.0056980
        k(  145) = (   0.0399960   0.0399960   0.0000000), wk =   0.0056980
        k(  146) = (   0.0333300   0.0333300   0.0000000), wk =   0.0056980
        k(  147) = (   0.0266640   0.0266640   0.0000000), wk =   0.0056980
        k(  148) = (   0.0199980   0.0199980   0.0000000), wk =   0.0056980
        k(  149) = (   0.0133320   0.0133320   0.0000000), wk =   0.0056980
        k(  150) = (   0.0066660   0.0066660   0.0000000), wk =   0.0056980
        k(  151) = (   0.0000000   0.0000000   0.0000000), wk =   0.0056980
        k(  152) = (   0.0000000   0.0000000   0.0100000), wk =   0.0056980
        k(  153) = (   0.0000000   0.0000000   0.0200000), wk =   0.0056980
        k(  154) = (   0.0000000   0.0000000   0.0300000), wk =   0.0056980
        k(  155) = (   0.0000000   0.0000000   0.0400000), wk =   0.0056980
        k(  156) = (   0.0000000   0.0000000   0.0500000), wk =   0.0056980
        k(  157) = (   0.0000000   0.0000000   0.0600000), wk =   0.0056980
        k(  158) = (   0.0000000   0.0000000   0.0700000), wk =   0.0056980
        k(  159) = (   0.0000000   0.0000000   0.0800000), wk =   0.0056980
        k(  160) = (   0.0000000   0.0000000   0.0900000), wk =   0.0056980
        k(  161) = (   0.0000000   0.0000000   0.1000000), wk =   0.0056980
        k(  162) = (   0.0000000   0.0000000   0.1100000), wk =   0.0056980
        k(  163) = (   0.0000000   0.0000000   0.1200000), wk =   0.0056980
        k(  164) = (   0.0000000   0.0000000   0.1300000), wk =   0.0056980
        k(  165) = (   0.0000000   0.0000000   0.1400000), wk =   0.0056980
        k(  166) = (   0.0000000   0.0000000   0.1500000), wk =   0.0056980
        k(  167) = (   0.0000000   0.0000000   0.1600000), wk =   0.0056980
        k(  168) = (   0.0000000   0.0000000   0.1700000), wk =   0.0056980
        k(  169) = (   0.0000000   0.0000000   0.1800000), wk =   0.0056980
        k(  170) = (   0.0000000   0.0000000   0.1900000), wk =   0.0056980
        k(  171) = (   0.0000000   0.0000000   0.2000000), wk =   0.0056980
        k(  172) = (   0.0000000   0.0000000   0.2100000), wk =   0.0056980
        k(  173) = (   0.0000000   0.0000000   0.2200000), wk =   0.0056980
        k(  174) = (   0.0000000   0.0000000   0.2300000), wk =   0.0056980
        k(  175) = (   0.0000000   0.0000000   0.2400000), wk =   0.0056980
        k(  176) = (   0.0000000   0.0000000   0.2500000), wk =   0.0056980
        k(  177) = (   0.0000000   0.0000000   0.2600000), wk =   0.0056980
        k(  178) = (   0.0000000   0.0000000   0.2700000), wk =   0.0056980
        k(  179) = (   0.0000000   0.0000000   0.2800000), wk =   0.0056980
        k(  180) = (   0.0000000   0.0000000   0.2900000), wk =   0.0056980
        k(  181) = (   0.0000000   0.0000000   0.3000000), wk =   0.0056980
        k(  182) = (   0.0000000   0.0000000   0.3100000), wk =   0.0056980
        k(  183) = (   0.0000000   0.0000000   0.3200000), wk =   0.0056980
        k(  184) = (   0.0000000   0.0000000   0.3300000), wk =   0.0056980
        k(  185) = (   0.0000000   0.0000000   0.3400000), wk =   0.0056980
        k(  186) = (   0.0000000   0.0000000   0.3500000), wk =   0.0056980
        k(  187) = (   0.0000000   0.0000000   0.3600000), wk =   0.0056980
        k(  188) = (   0.0000000   0.0000000   0.3700000), wk =   0.0056980
        k(  189) = (   0.0000000   0.0000000   0.3800000), wk =   0.0056980
        k(  190) = (   0.0000000   0.0000000   0.3900000), wk =   0.0056980
        k(  191) = (   0.0000000   0.0000000   0.4000000), wk =   0.0056980
        k(  192) = (   0.0000000   0.0000000   0.4100000), wk =   0.0056980
        k(  193) = (   0.0000000   0.0000000   0.4200000), wk =   0.0056980
        k(  194) = (   0.0000000   0.0000000   0.4300000), wk =   0.0056980
        k(  195) = (   0.0000000   0.0000000   0.4400000), wk =   0.0056980
        k(  196) = (   0.0000000   0.0000000   0.4500000), wk =   0.0056980
        k(  197) = (   0.0000000   0.0000000   0.4600000), wk =   0.0056980
        k(  198) = (   0.0000000   0.0000000   0.4700000), wk =   0.0056980
        k(  199) = (   0.0000000   0.0000000   0.4800000), wk =   0.0056980
        k(  200) = (   0.0000000   0.0000000   0.4900000), wk =   0.0056980
        k(  201) = (   0.0000000   0.0000000   0.5000000), wk =   0.0056980
        k(  202) = (   0.0100000   0.0000000   0.5000000), wk =   0.0056980
        k(  203) = (   0.0200000   0.0000000   0.5000000), wk =   0.0056980
        k(  204) = (   0.0300000   0.0000000   0.5000000), wk =   0.0056980
        k(  205) = (   0.0400000   0.0000000   0.5000000), wk =   0.0056980
        k(  206) = (   0.0500000  -0.0000000   0.5000000), wk =   0.0056980
        k(  207) = (   0.0600000   0.0000000   0.5000000), wk =   0.0056980
        k(  208) = (   0.0700000  -0.0000000   0.5000000), wk =   0.0056980
        k(  209) = (   0.0800000   0.0000000   0.5000000), wk =   0.0056980
        k(  210) = (   0.0900000   0.0000000   0.5000000), wk =   0.0056980
        k(  211) = (   0.1000000  -0.0000000   0.5000000), wk =   0.0056980
        k(  212) = (   0.1100000   0.0000000   0.5000000), wk =   0.0056980
        k(  213) = (   0.1200000   0.0000000   0.5000000), wk =   0.0056980
        k(  214) = (   0.1300000   0.0000000   0.5000000), wk =   0.0056980
        k(  215) = (   0.1400000  -0.0000000   0.5000000), wk =   0.0056980
        k(  216) = (   0.1500000   0.0000000   0.5000000), wk =   0.0056980
        k(  217) = (   0.1600000   0.0000000   0.5000000), wk =   0.0056980
        k(  218) = (   0.1700000  -0.0000000   0.5000000), wk =   0.0056980
        k(  219) = (   0.1800000   0.0000000   0.5000000), wk =   0.0056980
        k(  220) = (   0.1900000   0.0000000   0.5000000), wk =   0.0056980
        k(  221) = (   0.2000000  -0.0000000   0.5000000), wk =   0.0056980
        k(  222) = (   0.2100000   0.0000000   0.5000000), wk =   0.0056980
        k(  223) = (   0.2200000   0.0000000   0.5000000), wk =   0.0056980
        k(  224) = (   0.2300000  -0.0000000   0.5000000), wk =   0.0056980
        k(  225) = (   0.2400000   0.0000000   0.5000000), wk =   0.0056980
        k(  226) = (   0.2500000   0.0000000   0.5000000), wk =   0.0056980
        k(  227) = (   0.2600000   0.0000000   0.5000000), wk =   0.0056980
        k(  228) = (   0.2700000   0.0000000   0.5000000), wk =   0.0056980
        k(  229) = (   0.2800000  -0.0000000   0.5000000), wk =   0.0056980
        k(  230) = (   0.2900000   0.0000000   0.5000000), wk =   0.0056980
        k(  231) = (   0.3000000   0.0000000   0.5000000), wk =   0.0056980
        k(  232) = (   0.3100000   0.0000000   0.5000000), wk =   0.0056980
        k(  233) = (   0.3200000   0.0000000   0.5000000), wk =   0.0056980
        k(  234) = (   0.3300000  -0.0000000   0.5000000), wk =   0.0056980
        k(  235) = (   0.3400000  -0.0000000   0.5000000), wk =   0.0056980
        k(  236) = (   0.3500000   0.0000000   0.5000000), wk =   0.0056980
        k(  237) = (   0.3600000   0.0000000   0.5000000), wk =   0.0056980
        k(  238) = (   0.3700000   0.0000000   0.5000000), wk =   0.0056980
        k(  239) = (   0.3800000   0.0000000   0.5000000), wk =   0.0056980
        k(  240) = (   0.3900000  -0.0000000   0.5000000), wk =   0.0056980
        k(  241) = (   0.4000000  -0.0000000   0.5000000), wk =   0.0056980
        k(  242) = (   0.4100000   0.0000000   0.5000000), wk =   0.0056980
        k(  243) = (   0.4200000   0.0000000   0.5000000), wk =   0.0056980
        k(  244) = (   0.4300000   0.0000000   0.5000000), wk =   0.0056980
        k(  245) = (   0.4400000   0.0000000   0.5000000), wk =   0.0056980
        k(  246) = (   0.4500000  -0.0000000   0.5000000), wk =   0.0056980
        k(  247) = (   0.4600000  -0.0000000   0.5000000), wk =   0.0056980
        k(  248) = (   0.4700000   0.0000000   0.5000000), wk =   0.0056980
        k(  249) = (   0.4800000   0.0000000   0.5000000), wk =   0.0056980
        k(  250) = (   0.4900000   0.0000000   0.5000000), wk =   0.0056980
        k(  251) = (   0.5000000   0.0000000   0.5000000), wk =   0.0056980
        k(  252) = (   0.4966660   0.0066660   0.5000000), wk =   0.0056980
        k(  253) = (   0.4933320   0.0133320   0.5000000), wk =   0.0056980
        k(  254) = (   0.4899980   0.0199980   0.5000000), wk =   0.0056980
        k(  255) = (   0.4866640   0.0266640   0.5000000), wk =   0.0056980
        k(  256) = (   0.4833300   0.0333300   0.5000000), wk =   0.0056980
        k(  257) = (   0.4799960   0.0399960   0.5000000), wk =   0.0056980
        k(  258) = (   0.4766620   0.0466620   0.5000000), wk =   0.0056980
        k(  259) = (   0.4733280   0.0533280   0.5000000), wk =   0.0056980
        k(  260) = (   0.4699940   0.0599940   0.5000000), wk =   0.0056980
        k(  261) = (   0.4666600   0.0666600   0.5000000), wk =   0.0056980
        k(  262) = (   0.4633260   0.0733260   0.5000000), wk =   0.0056980
        k(  263) = (   0.4599920   0.0799920   0.5000000), wk =   0.0056980
        k(  264) = (   0.4566580   0.0866580   0.5000000), wk =   0.0056980
        k(  265) = (   0.4533240   0.0933240   0.5000000), wk =   0.0056980
        k(  266) = (   0.4499900   0.0999900   0.5000000), wk =   0.0056980
        k(  267) = (   0.4466560   0.1066560   0.5000000), wk =   0.0056980
        k(  268) = (   0.4433220   0.1133220   0.5000000), wk =   0.0056980
        k(  269) = (   0.4399880   0.1199880   0.5000000), wk =   0.0056980
        k(  270) = (   0.4366540   0.1266540   0.5000000), wk =   0.0056980
        k(  271) = (   0.4333200   0.1333200   0.5000000), wk =   0.0056980
        k(  272) = (   0.4299860   0.1399860   0.5000000), wk =   0.0056980
        k(  273) = (   0.4266520   0.1466520   0.5000000), wk =   0.0056980
        k(  274) = (   0.4233180   0.1533180   0.5000000), wk =   0.0056980
        k(  275) = (   0.4199840   0.1599840   0.5000000), wk =   0.0056980
        k(  276) = (   0.4166500   0.1666500   0.5000000), wk =   0.0056980
        k(  277) = (   0.4133160   0.1733160   0.5000000), wk =   0.0056980
        k(  278) = (   0.4099820   0.1799820   0.5000000), wk =   0.0056980
        k(  279) = (   0.4066480   0.1866480   0.5000000), wk =   0.0056980
        k(  280) = (   0.4033140   0.1933140   0.5000000), wk =   0.0056980
        k(  281) = (   0.3999800   0.1999800   0.5000000), wk =   0.0056980
        k(  282) = (   0.3966460   0.2066460   0.5000000), wk =   0.0056980
        k(  283) = (   0.3933120   0.2133120   0.5000000), wk =   0.0056980
        k(  284) = (   0.3899780   0.2199780   0.5000000), wk =   0.0056980
        k(  285) = (   0.3866440   0.2266440   0.5000000), wk =   0.0056980
        k(  286) = (   0.3833100   0.2333100   0.5000000), wk =   0.0056980
        k(  287) = (   0.3799760   0.2399760   0.5000000), wk =   0.0056980
        k(  288) = (   0.3766420   0.2466420   0.5000000), wk =   0.0056980
        k(  289) = (   0.3733080   0.2533080   0.5000000), wk =   0.0056980
        k(  290) = (   0.3699740   0.2599740   0.5000000), wk =   0.0056980
        k(  291) = (   0.3666400   0.2666400   0.5000000), wk =   0.0056980
        k(  292) = (   0.3633060   0.2733060   0.5000000), wk =   0.0056980
        k(  293) = (   0.3599720   0.2799720   0.5000000), wk =   0.0056980
        k(  294) = (   0.3566380   0.2866380   0.5000000), wk =   0.0056980
        k(  295) = (   0.3533040   0.2933040   0.5000000), wk =   0.0056980
        k(  296) = (   0.3499700   0.2999700   0.5000000), wk =   0.0056980
        k(  297) = (   0.3466360   0.3066360   0.5000000), wk =   0.0056980
        k(  298) = (   0.3433020   0.3133020   0.5000000), wk =   0.0056980
        k(  299) = (   0.3399680   0.3199680   0.5000000), wk =   0.0056980
        k(  300) = (   0.3366340   0.3266340   0.5000000), wk =   0.0056980
        k(  301) = (   0.3333000   0.3333000   0.5000000), wk =   0.0056980
        k(  302) = (   0.3266340   0.3266340   0.5000000), wk =   0.0056980
        k(  303) = (   0.3199680   0.3199680   0.5000000), wk =   0.0056980
        k(  304) = (   0.3133020   0.3133020   0.5000000), wk =   0.0056980
        k(  305) = (   0.3066360   0.3066360   0.5000000), wk =   0.0056980
        k(  306) = (   0.2999700   0.2999700   0.5000000), wk =   0.0056980
        k(  307) = (   0.2933040   0.2933040   0.5000000), wk =   0.0056980
        k(  308) = (   0.2866380   0.2866380   0.5000000), wk =   0.0056980
        k(  309) = (   0.2799720   0.2799720   0.5000000), wk =   0.0056980
        k(  310) = (   0.2733060   0.2733060   0.5000000), wk =   0.0056980
        k(  311) = (   0.2666400   0.2666400   0.5000000), wk =   0.0056980
        k(  312) = (   0.2599740   0.2599740   0.5000000), wk =   0.0056980
        k(  313) = (   0.2533080   0.2533080   0.5000000), wk =   0.0056980
        k(  314) = (   0.2466420   0.2466420   0.5000000), wk =   0.0056980
        k(  315) = (   0.2399760   0.2399760   0.5000000), wk =   0.0056980
        k(  316) = (   0.2333100   0.2333100   0.5000000), wk =   0.0056980
        k(  317) = (   0.2266440   0.2266440   0.5000000), wk =   0.0056980
        k(  318) = (   0.2199780   0.2199780   0.5000000), wk =   0.0056980
        k(  319) = (   0.2133120   0.2133120   0.5000000), wk =   0.0056980
        k(  320) = (   0.2066460   0.2066460   0.5000000), wk =   0.0056980
        k(  321) = (   0.1999800   0.1999800   0.5000000), wk =   0.0056980
        k(  322) = (   0.1933140   0.1933140   0.5000000), wk =   0.0056980
        k(  323) = (   0.1866480   0.1866480   0.5000000), wk =   0.0056980
        k(  324) = (   0.1799820   0.1799820   0.5000000), wk =   0.0056980
        k(  325) = (   0.1733160   0.1733160   0.5000000), wk =   0.0056980
        k(  326) = (   0.1666500   0.1666500   0.5000000), wk =   0.0056980
        k(  327) = (   0.1599840   0.1599840   0.5000000), wk =   0.0056980
        k(  328) = (   0.1533180   0.1533180   0.5000000), wk =   0.0056980
        k(  329) = (   0.1466520   0.1466520   0.5000000), wk =   0.0056980
        k(  330) = (   0.1399860   0.1399860   0.5000000), wk =   0.0056980
        k(  331) = (   0.1333200   0.1333200   0.5000000), wk =   0.0056980
        k(  332) = (   0.1266540   0.1266540   0.5000000), wk =   0.0056980
        k(  333) = (   0.1199880   0.1199880   0.5000000), wk =   0.0056980
        k(  334) = (   0.1133220   0.1133220   0.5000000), wk =   0.0056980
        k(  335) = (   0.1066560   0.1066560   0.5000000), wk =   0.0056980
        k(  336) = (   0.0999900   0.0999900   0.5000000), wk =   0.0056980
        k(  337) = (   0.0933240   0.0933240   0.5000000), wk =   0.0056980
        k(  338) = (   0.0866580   0.0866580   0.5000000), wk =   0.0056980
        k(  339) = (   0.0799920   0.0799920   0.5000000), wk =   0.0056980
        k(  340) = (   0.0733260   0.0733260   0.5000000), wk =   0.0056980
        k(  341) = (   0.0666600   0.0666600   0.5000000), wk =   0.0056980
        k(  342) = (   0.0599940   0.0599940   0.5000000), wk =   0.0056980
        k(  343) = (   0.0533280   0.0533280   0.5000000), wk =   0.0056980
        k(  344) = (   0.0466620   0.0466620   0.5000000), wk =   0.0056980
        k(  345) = (   0.0399960   0.0399960   0.5000000), wk =   0.0056980
        k(  346) = (   0.0333300   0.0333300   0.5000000), wk =   0.0056980
        k(  347) = (   0.0266640   0.0266640   0.5000000), wk =   0.0056980
        k(  348) = (   0.0199980   0.0199980   0.5000000), wk =   0.0056980
        k(  349) = (   0.0133320   0.0133320   0.5000000), wk =   0.0056980
        k(  350) = (   0.0066660   0.0066660   0.5000000), wk =   0.0056980
        k(  351) = (   0.0000000   0.0000000   0.5000000), wk =   0.0056980

     Dense  grid:   110773 G-vectors     FFT dimensions: (  54,  54,  90)

     Smooth grid:    39149 G-vectors     FFT dimensions: (  40,  40,  60)

     Dynamical RAM for                 wfc:       0.75 MB

     Dynamical RAM for     wfc (w. buffer):       0.75 MB

     Dynamical RAM for           str. fact:       0.85 MB

     Dynamical RAM for           local pot:       0.00 MB

     Dynamical RAM for          nlocal pot:       1.12 MB

     Dynamical RAM for                qrad:       3.05 MB

     Dynamical RAM for          rho,v,vnew:       2.80 MB

     Dynamical RAM for           G-vectors:       1.66 MB

     Dynamical RAM for          h,s,v(r/c):       0.07 MB

     Dynamical RAM for          <psi|beta>:       0.04 MB

     Dynamical RAM for                 psi:       1.49 MB

     Dynamical RAM for                hpsi:       1.49 MB

     Dynamical RAM for                spsi:       1.49 MB

     Dynamical RAM for      wfcinit/wfcrot:       1.53 MB

     Dynamical RAM for           addusdens:      79.86 MB

     Estimated static dynamical RAM per process >      14.04 MB

     Estimated max dynamical RAM per process >      93.91 MB

     Estimated total dynamical RAM >     375.63 MB

     Check: negative core charge=   -0.000010

     The potential is recalculated from file :
     ../out/m2.save/charge-density

     Starting wfcs are   33 randomized atomic wfcs +    7 random wfcs

     Band Structure Calculation
     Davidson diagonalization with overlap

     Computing kpt #:     1  of   351
     total cpu time spent up to now is       81.7 secs

     Computing kpt #:     2  of   351
     total cpu time spent up to now is      168.4 secs

     Computing kpt #:     3  of   351
     total cpu time spent up to now is      252.3 secs

     Computing kpt #:     4  of   351
     total cpu time spent up to now is      334.3 secs

     Computing kpt #:     5  of   351
     total cpu time spent up to now is      404.4 secs

     Computing kpt #:     6  of   351
     total cpu time spent up to now is      473.7 secs

     Computing kpt #:     7  of   351
     total cpu time spent up to now is      540.4 secs

     Computing kpt #:     8  of   351
     total cpu time spent up to now is      605.7 secs

     Computing kpt #:     9  of   351
     total cpu time spent up to now is      669.5 secs

     Computing kpt #:    10  of   351
     total cpu time spent up to now is      734.0 secs

     Computing kpt #:    11  of   351
     total cpu time spent up to now is      806.0 secs

     Computing kpt #:    12  of   351
     total cpu time spent up to now is      874.5 secs

     Computing kpt #:    13  of   351
     total cpu time spent up to now is      947.9 secs

     Computing kpt #:    14  of   351
     total cpu time spent up to now is     1030.1 secs

     Computing kpt #:    15  of   351
     total cpu time spent up to now is     1110.6 secs

     Computing kpt #:    16  of   351
     total cpu time spent up to now is     1187.6 secs

     Computing kpt #:    17  of   351
     total cpu time spent up to now is     1270.7 secs

     Computing kpt #:    18  of   351
     total cpu time spent up to now is     1356.4 secs

     Computing kpt #:    19  of   351
     total cpu time spent up to now is     1460.8 secs

     Computing kpt #:    20  of   351
     total cpu time spent up to now is     1547.0 secs

     Computing kpt #:    21  of   351
     total cpu time spent up to now is     1628.3 secs

     Computing kpt #:    22  of   351
     total cpu time spent up to now is     1700.8 secs

     Computing kpt #:    23  of   351
     total cpu time spent up to now is     1770.0 secs

     Computing kpt #:    24  of   351
     total cpu time spent up to now is     1840.0 secs

     Computing kpt #:    25  of   351
     total cpu time spent up to now is     1909.9 secs

     Computing kpt #:    26  of   351
     total cpu time spent up to now is     1976.8 secs

     Computing kpt #:    27  of   351
     total cpu time spent up to now is     2044.7 secs

     Computing kpt #:    28  of   351
     total cpu time spent up to now is     2113.6 secs

     Computing kpt #:    29  of   351
     total cpu time spent up to now is     2181.5 secs

     Computing kpt #:    30  of   351
     total cpu time spent up to now is     2251.7 secs

     Computing kpt #:    31  of   351
     total cpu time spent up to now is     2318.8 secs

     Computing kpt #:    32  of   351
     total cpu time spent up to now is     2390.0 secs

     Computing kpt #:    33  of   351
     total cpu time spent up to now is     2460.6 secs

     Computing kpt #:    34  of   351
     total cpu time spent up to now is     2533.0 secs

     Computing kpt #:    35  of   351
     total cpu time spent up to now is     2607.3 secs

     Computing kpt #:    36  of   351
     total cpu time spent up to now is     2682.7 secs

     Computing kpt #:    37  of   351
     total cpu time spent up to now is     2761.3 secs

     Computing kpt #:    38  of   351
     total cpu time spent up to now is     2840.9 secs

     Computing kpt #:    39  of   351
     total cpu time spent up to now is     2921.8 secs

     Computing kpt #:    40  of   351
     total cpu time spent up to now is     3002.7 secs

     Computing kpt #:    41  of   351
     total cpu time spent up to now is     3085.5 secs

     Computing kpt #:    42  of   351
     total cpu time spent up to now is     3169.7 secs

     Computing kpt #:    43  of   351
     total cpu time spent up to now is     3251.3 secs

     Computing kpt #:    44  of   351
     total cpu time spent up to now is     3332.7 secs

     Computing kpt #:    45  of   351
     total cpu time spent up to now is     3412.5 secs

     Computing kpt #:    46  of   351
     total cpu time spent up to now is     3494.1 secs

     Computing kpt #:    47  of   351
     total cpu time spent up to now is     3577.8 secs

     Computing kpt #:    48  of   351
     total cpu time spent up to now is     3669.2 secs

     Computing kpt #:    49  of   351
     total cpu time spent up to now is     3754.5 secs

     Computing kpt #:    50  of   351
     total cpu time spent up to now is     3856.0 secs

     Computing kpt #:    51  of   351
     total cpu time spent up to now is     3942.0 secs

     Computing kpt #:    52  of   351
     total cpu time spent up to now is     4027.3 secs

     Computing kpt #:    53  of   351
     total cpu time spent up to now is     4112.8 secs

     Computing kpt #:    54  of   351
     total cpu time spent up to now is     4194.7 secs

     Computing kpt #:    55  of   351
     total cpu time spent up to now is     4275.8 secs

     Computing kpt #:    56  of   351
     total cpu time spent up to now is     4357.8 secs

     Computing kpt #:    57  of   351
     total cpu time spent up to now is     4438.9 secs

     Computing kpt #:    58  of   351
     total cpu time spent up to now is     4520.4 secs

     Computing kpt #:    59  of   351
     total cpu time spent up to now is     4603.3 secs

     Computing kpt #:    60  of   351
     total cpu time spent up to now is     4695.1 secs

     Computing kpt #:    61  of   351
     total cpu time spent up to now is     4780.2 secs

     Computing kpt #:    62  of   351
     c_bands:  1 eigenvalues not converged
     total cpu time spent up to now is     4885.0 secs

     Computing kpt #:    63  of   351
     total cpu time spent up to now is     4971.8 secs

     Computing kpt #:    64  of   351
     total cpu time spent up to now is     5058.3 secs

     Computing kpt #:    65  of   351
     total cpu time spent up to now is     5149.6 secs

     Computing kpt #:    66  of   351
     total cpu time spent up to now is     5231.1 secs

     Computing kpt #:    67  of   351
     total cpu time spent up to now is     5312.9 secs

     Computing kpt #:    68  of   351
     total cpu time spent up to now is     5390.5 secs

     Computing kpt #:    69  of   351
     total cpu time spent up to now is     5462.8 secs

     Computing kpt #:    70  of   351
     total cpu time spent up to now is     5539.2 secs

     Computing kpt #:    71  of   351
     total cpu time spent up to now is     5608.2 secs

     Computing kpt #:    72  of   351
     total cpu time spent up to now is     5683.1 secs

     Computing kpt #:    73  of   351
     total cpu time spent up to now is     5754.1 secs

     Computing kpt #:    74  of   351
     total cpu time spent up to now is     5824.1 secs

     Computing kpt #:    75  of   351
     total cpu time spent up to now is     5889.3 secs

     Computing kpt #:    76  of   351
     total cpu time spent up to now is     5957.2 secs

     Computing kpt #:    77  of   351
     total cpu time spent up to now is     6030.7 secs

     Computing kpt #:    78  of   351
     total cpu time spent up to now is     6102.3 secs

     Computing kpt #:    79  of   351
     total cpu time spent up to now is     6177.0 secs

     Computing kpt #:    80  of   351
     total cpu time spent up to now is     6255.6 secs

     Computing kpt #:    81  of   351
     total cpu time spent up to now is     6334.3 secs

     Computing kpt #:    82  of   351
     total cpu time spent up to now is     6418.6 secs

     Computing kpt #:    83  of   351
     total cpu time spent up to now is     6494.4 secs

     Computing kpt #:    84  of   351
     total cpu time spent up to now is     6569.2 secs

     Computing kpt #:    85  of   351
     total cpu time spent up to now is     6645.1 secs

     Computing kpt #:    86  of   351
     total cpu time spent up to now is     6733.5 secs

     Computing kpt #:    87  of   351
     total cpu time spent up to now is     6813.7 secs

     Computing kpt #:    88  of   351
     total cpu time spent up to now is     6903.1 secs

     Computing kpt #:    89  of   351
     total cpu time spent up to now is     6991.6 secs

     Computing kpt #:    90  of   351
     total cpu time spent up to now is     7072.7 secs

     Computing kpt #:    91  of   351
     total cpu time spent up to now is     7146.6 secs

     Computing kpt #:    92  of   351
     total cpu time spent up to now is     7214.6 secs

     Computing kpt #:    93  of   351
     total cpu time spent up to now is     7282.6 secs

     Computing kpt #:    94  of   351
     total cpu time spent up to now is     7348.2 secs

     Computing kpt #:    95  of   351
     total cpu time spent up to now is     7417.2 secs

     Computing kpt #:    96  of   351
     total cpu time spent up to now is     7483.7 secs

     Computing kpt #:    97  of   351
     total cpu time spent up to now is     7552.8 secs

     Computing kpt #:    98  of   351
     total cpu time spent up to now is     7630.2 secs

     Computing kpt #:    99  of   351
     total cpu time spent up to now is     7707.8 secs

     Computing kpt #:   100  of   351
     total cpu time spent up to now is     7794.9 secs

     Computing kpt #:   101  of   351
     c_bands:  1 eigenvalues not converged
     total cpu time spent up to now is     7900.5 secs

     Computing kpt #:   102  of   351
     total cpu time spent up to now is     7983.2 secs

     Computing kpt #:   103  of   351
     total cpu time spent up to now is     8062.0 secs

     Computing kpt #:   104  of   351
     total cpu time spent up to now is     8134.7 secs

     Computing kpt #:   105  of   351
     total cpu time spent up to now is     8204.4 secs

     Computing kpt #:   106  of   351
     total cpu time spent up to now is     8271.2 secs

     Computing kpt #:   107  of   351
     total cpu time spent up to now is     8339.6 secs

     Computing kpt #:   108  of   351
     total cpu time spent up to now is     8406.1 secs

     Computing kpt #:   109  of   351
     total cpu time spent up to now is     8475.6 secs

     Computing kpt #:   110  of   351
     total cpu time spent up to now is     8545.2 secs

     Computing kpt #:   111  of   351
     total cpu time spent up to now is     8617.0 secs

     Computing kpt #:   112  of   351
     total cpu time spent up to now is     8691.9 secs

     Computing kpt #:   113  of   351
     total cpu time spent up to now is     8780.6 secs

     Computing kpt #:   114  of   351
     total cpu time spent up to now is     8879.0 secs

     Computing kpt #:   115  of   351
     total cpu time spent up to now is     8967.2 secs

     Computing kpt #:   116  of   351
     total cpu time spent up to now is     9051.6 secs

     Computing kpt #:   117  of   351
     total cpu time spent up to now is     9128.4 secs

     Computing kpt #:   118  of   351
     total cpu time spent up to now is     9208.7 secs

     Computing kpt #:   119  of   351
     total cpu time spent up to now is     9286.6 secs

     Computing kpt #:   120  of   351
     total cpu time spent up to now is     9367.4 secs

     Computing kpt #:   121  of   351
     total cpu time spent up to now is     9451.0 secs

     Computing kpt #:   122  of   351
     total cpu time spent up to now is     9533.7 secs

     Computing kpt #:   123  of   351
     total cpu time spent up to now is     9605.7 secs

     Computing kpt #:   124  of   351
     total cpu time spent up to now is     9671.2 secs

     Computing kpt #:   125  of   351
     total cpu time spent up to now is     9736.1 secs

     Computing kpt #:   126  of   351
     total cpu time spent up to now is     9802.1 secs

     Computing kpt #:   127  of   351
     total cpu time spent up to now is     9872.6 secs

     Computing kpt #:   128  of   351
     total cpu time spent up to now is     9943.6 secs

     Computing kpt #:   129  of   351
     total cpu time spent up to now is    10014.7 secs

     Computing kpt #:   130  of   351
     total cpu time spent up to now is    10088.4 secs

     Computing kpt #:   131  of   351
     total cpu time spent up to now is    10163.7 secs

     Computing kpt #:   132  of   351
     total cpu time spent up to now is    10233.1 secs

     Computing kpt #:   133  of   351
     total cpu time spent up to now is    10311.4 secs

     Computing kpt #:   134  of   351
     total cpu time spent up to now is    10387.9 secs

     Computing kpt #:   135  of   351
     total cpu time spent up to now is    10463.2 secs

     Computing kpt #:   136  of   351
     total cpu time spent up to now is    10539.1 secs

     Computing kpt #:   137  of   351
     total cpu time spent up to now is    10619.6 secs

     Computing kpt #:   138  of   351
     total cpu time spent up to now is    10701.3 secs

     Computing kpt #:   139  of   351
     total cpu time spent up to now is    10786.3 secs

     Computing kpt #:   140  of   351
     c_bands:  1 eigenvalues not converged
     total cpu time spent up to now is    10888.6 secs

     Computing kpt #:   141  of   351
     total cpu time spent up to now is    10981.0 secs

     Computing kpt #:   142  of   351
     total cpu time spent up to now is    11062.4 secs

     Computing kpt #:   143  of   351
     total cpu time spent up to now is    11151.9 secs

     Computing kpt #:   144  of   351
     total cpu time spent up to now is    11238.3 secs

     Computing kpt #:   145  of   351
     total cpu time spent up to now is    11321.3 secs

     Computing kpt #:   146  of   351
     total cpu time spent up to now is    11402.2 secs

     Computing kpt #:   147  of   351
     total cpu time spent up to now is    11483.5 secs

     Computing kpt #:   148  of   351
     total cpu time spent up to now is    11569.8 secs

     Computing kpt #:   149  of   351
     total cpu time spent up to now is    11657.5 secs

     Computing kpt #:   150  of   351
     total cpu time spent up to now is    11768.2 secs

     Computing kpt #:   151  of   351
     total cpu time spent up to now is    11854.0 secs

     Computing kpt #:   152  of   351
     total cpu time spent up to now is    11962.6 secs

     Computing kpt #:   153  of   351
     total cpu time spent up to now is    12048.0 secs

     Computing kpt #:   154  of   351
     total cpu time spent up to now is    12130.7 secs

     Computing kpt #:   155  of   351
     total cpu time spent up to now is    12218.8 secs

     Computing kpt #:   156  of   351
     total cpu time spent up to now is    12306.8 secs

     Computing kpt #:   157  of   351
     total cpu time spent up to now is    12393.0 secs

[...]

   -69.7595 -69.1601 -69.1598 -36.5110 -36.5070 -36.5061 -35.9133 -35.9131
   -35.9117 -35.9089 -35.9074 -35.9074 -14.7303 -14.7277 -14.7260 -14.7235
   -14.7141 -14.7126 -14.6948 -14.6929 -14.6903 -14.6868  -3.1164  -3.0243
     3.1298   3.1813   4.2414   4.7654   6.2279   6.3624   8.8007   9.1846
    10.2150  10.2460  11.2726  11.4873  11.6524  12.0351  15.0208  15.2507

          k =-0.4933 0.0000-0.3164 (  4888 PWs)   bands (ev):

   -69.7595 -69.1601 -69.1598 -36.5110 -36.5070 -36.5061 -35.9133 -35.9130
   -35.9116 -35.9090 -35.9074 -35.9074 -14.7303 -14.7277 -14.7259 -14.7236
   -14.7142 -14.7126 -14.6948 -14.6932 -14.6903 -14.6868  -3.1328  -3.0323
     3.1426   3.1897   4.3215   4.8260   6.1912   6.3302   8.8070   9.2346
    10.2481  10.2804  11.2089  11.4355  11.5680  12.0280  15.1688  15.3585

          k =-0.4800 0.0000-0.3164 (  4888 PWs)   bands (ev):

   -69.7595 -69.1601 -69.1598 -36.5110 -36.5069 -36.5061 -35.9133 -35.9130
   -35.9116 -35.9090 -35.9074 -35.9074 -14.7304 -14.7277 -14.7258 -14.7237
   -14.7143 -14.7127 -14.6948 -14.6934 -14.6902 -14.6867  -3.1501  -3.0413
     3.1600   3.2016   4.4030   4.8883   6.1546   6.2966   8.8150   9.2877
    10.2760  10.3147  11.1502  11.3926  11.4855  12.0296  15.2390  15.3405

          k =-0.4666 0.0000-0.3164 (  4888 PWs)   bands (ev):

   -69.7595 -69.1601 -69.1598 -36.5113 -36.5070 -36.5057 -35.9130 -35.9129
   -35.9116 -35.9091 -35.9075 -35.9074 -14.7304 -14.7277 -14.7257 -14.7238
   -14.7144 -14.7127 -14.6948 -14.6936 -14.6902 -14.6866  -3.1683  -3.0513
     3.1819   3.2168   4.4863   4.9521   6.1185   6.2618   8.8241   9.3436
    10.2974  10.3499  11.0967  11.3605  11.4042  12.0403  15.1774  15.2187

          k =-0.4533 0.0000-0.3164 (  4880 PWs)   bands (ev):

   -69.7595 -69.1601 -69.1598 -36.5109 -36.5066 -36.5058 -35.9128 -35.9127
   -35.9113 -35.9089 -35.9074 -35.9071 -14.7304 -14.7277 -14.7255 -14.7239
   -14.7145 -14.7128 -14.6948 -14.6939 -14.6901 -14.6866  -3.1873  -3.0620
     3.2084   3.2357   4.5707   5.0169   6.0837   6.2266   8.8342   9.4016
    10.3107  10.3850  11.0481  11.3258  11.3409  12.0592  15.0700  15.0786

          k =-0.4400 0.0000-0.3164 (  4876 PWs)   bands (ev):

   -69.7595 -69.1601 -69.1598 -36.5106 -36.5066 -36.5057 -35.9129 -35.9127
   -35.9110 -35.9088 -35.9071 -35.9069 -14.7304 -14.7277 -14.7254 -14.7240
   -14.7146 -14.7129 -14.6948 -14.6941 -14.6901 -14.6866  -3.2070  -3.0736
     3.2390   3.2578   4.6561   5.0823   6.0506   6.1913   8.8448   9.4609
    10.3147  10.4201  11.0040  11.2501  11.3348  12.0862  14.9252  14.9479

          k =-0.4266 0.0000-0.3164 (  4880 PWs)   bands (ev):

   -69.7595 -69.1601 -69.1597 -36.5108 -36.5066 -36.5058 -35.9129 -35.9128
   -35.9112 -35.9089 -35.9072 -35.9070 -14.7304 -14.7277 -14.7254 -14.7241
   -14.7147 -14.7129 -14.6949 -14.6943 -14.6901 -14.6866  -3.2272  -3.0859
     3.2735   3.2830   4.7419   5.1478   6.0195   6.1563   8.8548   9.5207
    10.3096  10.4550  10.9644  11.1777  11.3424  12.1210  14.7614  14.8151

          k =-0.4133 0.0000-0.3164 (  4884 PWs)   bands (ev):

   -69.7595 -69.1602 -69.1597 -36.5109 -36.5069 -36.5057 -35.9131 -35.9126
   -35.9113 -35.9090 -35.9075 -35.9071 -14.7304 -14.7277 -14.7253 -14.7242
   -14.7148 -14.7130 -14.6949 -14.6945 -14.6900 -14.6866  -3.2481  -3.0989
     3.3111   3.3119   4.8287   5.2131   5.9914   6.1222   8.8645   9.5802
    10.2963  10.4899  10.9300  11.1093  11.3630  12.1633  14.5894  14.6724

          k =-0.4000 0.0000-0.3164 (  4894 PWs)   bands (ev):

   -69.7595 -69.1602 -69.1598 -36.5111 -36.5072 -36.5061 -35.9135 -35.9129
   -35.9116 -35.9093 -35.9078 -35.9073 -14.7304 -14.7277 -14.7252 -14.7243
   -14.7150 -14.7131 -14.6950 -14.6948 -14.6900 -14.6866  -3.2693  -3.1126
     3.3420   3.3538   4.9156   5.2775   5.9669   6.0893   8.8729   9.6387
    10.2761  10.5226  10.9015  11.0470  11.3950  12.2122  14.4111  14.5198

          k =-0.3866 0.0000-0.3164 (  4894 PWs)   bands (ev):

   -69.7595 -69.1602 -69.1597 -36.5111 -36.5072 -36.5061 -35.9134 -35.9129
   -35.9115 -35.9093 -35.9079 -35.9073 -14.7304 -14.7276 -14.7251 -14.7245
   -14.7151 -14.7132 -14.6951 -14.6950 -14.6900 -14.6866  -3.2909  -3.1268
     3.3757   3.3990   5.0025   5.3402   5.9473   6.0588   8.8813   9.6951
    10.2509  10.5508  10.8801  10.9944  11.4365  12.2675  14.2283  14.3583

          k =-0.3733 0.0000-0.3164 (  4890 PWs)   bands (ev):

   -69.7595 -69.1602 -69.1597 -36.5110 -36.5070 -36.5060 -35.9133 -35.9128
   -35.9114 -35.9092 -35.9078 -35.9071 -14.7304 -14.7276 -14.7251 -14.7246
   -14.7152 -14.7133 -14.6952 -14.6952 -14.6899 -14.6866  -3.3128  -3.1414
     3.4118   3.4473   5.0892   5.4003   5.9335   6.0310   8.8891   9.7481
    10.2221  10.5689  10.8668  10.9572  11.4853  12.3288  14.0430  14.1891

          k =-0.3600 0.0000-0.3164 (  4894 PWs)   bands (ev):

   -69.7595 -69.1602 -69.1597 -36.5110 -36.5070 -36.5064 -35.9134 -35.9128
   -35.9118 -35.9092 -35.9079 -35.9071 -14.7303 -14.7276 -14.7250 -14.7247
   -14.7153 -14.7135 -14.6954 -14.6953 -14.6898 -14.6866  -3.3348  -3.1565
     3.4494   3.4980   5.1751   5.4565   5.9269   6.0064   8.8961   9.7960
    10.1910  10.5693  10.8631  10.9425  11.5391  12.3953  13.8565  14.0133

          k =-0.3466 0.0000-0.3164 (  4890 PWs)   bands (ev):

   -69.7595 -69.1602 -69.1597 -36.5109 -36.5067 -36.5064 -35.9133 -35.9128
   -35.9117 -35.9088 -35.9078 -35.9069 -14.7303 -14.7276 -14.7249 -14.7248
   -14.7154 -14.7136 -14.6956 -14.6954 -14.6898 -14.6867  -3.3569  -3.1718
     3.4890   3.5510   5.2596   5.5074   5.9294   5.9864   8.9030   9.8378
    10.1592  10.5483  10.8698  10.9543  11.5957  12.4665  13.6714  13.8335

          k =-0.3333 0.0000-0.3164 (  4894 PWs)   bands (ev):

   -69.7595 -69.1602 -69.1597 -36.5109 -36.5069 -36.5064 -35.9136 -35.9127
   -35.9119 -35.9090 -35.9081 -35.9068 -14.7302 -14.7275 -14.7249 -14.7249
   -14.7156 -14.7137 -14.6958 -14.6955 -14.6897 -14.6867  -3.3790  -3.1874
     3.5292   3.6059   5.3415   5.5516   5.9421   5.9715   8.9092   9.8716
    10.1281  10.5085  10.8871  10.9901  11.6529  12.5425  13.4893  13.6508

          k =-0.3200 0.0000-0.3164 (  4902 PWs)   bands (ev):

   -69.7595 -69.1603 -69.1597 -36.5111 -36.5070 -36.5068 -35.9137 -35.9128
   -35.9122 -35.9091 -35.9085 -35.9070 -14.7302 -14.7275 -14.7250 -14.7249
   -14.7157 -14.7138 -14.6960 -14.6956 -14.6896 -14.6868  -3.4009  -3.2032
     3.5701   3.6618   5.4199   5.5889   5.9634   5.9657   8.9156   9.8953
    10.1004  10.4566  10.9154  11.0422  11.7076  12.6216  13.3134  13.4676

          k =-0.3066 0.0000-0.3164 (  4898 PWs)   bands (ev):

   -69.7595 -69.1603 -69.1597 -36.5111 -36.5067 -36.5066 -35.9135 -35.9124
   -35.9120 -35.9089 -35.9086 -35.9071 -14.7301 -14.7275 -14.7251 -14.7248
   -14.7158 -14.7139 -14.6962 -14.6957 -14.6895 -14.6868  -3.4227  -3.2190
     3.6112   3.7188   5.4935   5.6201   5.9642   5.9997   8.9233   9.9065
    10.0798  10.3976  10.9546  11.1064  11.7564  12.7038  13.1481  13.2858

          k =-0.2933 0.0000-0.3164 (  4902 PWs)   bands (ev):

   -69.7595 -69.1603 -69.1597 -36.5112 -36.5069 -36.5068 -35.9136 -35.9125
   -35.9119 -35.9090 -35.9088 -35.9072 -14.7301 -14.7275 -14.7252 -14.7248
   -14.7159 -14.7140 -14.6964 -14.6959 -14.6894 -14.6869  -3.4442  -3.2348
     3.6521   3.7759   5.5600   5.6473   5.9751   6.0418   8.9314   9.9021
    10.0697  10.3335  11.0024  11.1791  11.7937  12.7865  12.9989  13.1083

          k =-0.2800 0.0000-0.3164 (  4910 PWs)   bands (ev):

   -69.7595 -69.1603 -69.1597 -36.5112 -36.5072 -36.5071 -35.9140 -35.9130
   -35.9120 -35.9092 -35.9090 -35.9072 -14.7300 -14.7275 -14.7253 -14.7248
   -14.7161 -14.7141 -14.6965 -14.6960 -14.6893 -14.6870  -3.4653  -3.2505
     3.6920   3.8324   5.6182   5.6732   5.9984   6.0897   8.9412   9.8833
    10.0708  10.2660  11.0574  11.2585  11.8119  12.8482  12.8737  12.9571

          k =-0.2666 0.0000-0.3164 (  4910 PWs)   bands (ev):

   -69.7595 -69.1603 -69.1597 -36.5110 -36.5072 -36.5071 -35.9140 -35.9132
   -35.9117 -35.9092 -35.9090 -35.9072 -14.7300 -14.7276 -14.7254 -14.7248
   -14.7162 -14.7143 -14.6967 -14.6962 -14.6892 -14.6870  -3.4859  -3.2659
     3.7308   3.8880   5.6676   5.7001   6.0347   6.1414   8.9533   9.8545
    10.0801  10.1965  11.1174  11.3435  11.8030  12.7364  12.7820  12.9857

          k =-0.2533 0.0000-0.3164 (  4910 PWs)   bands (ev):

   -69.7595 -69.1603 -69.1597 -36.5110 -36.5072 -36.5072 -35.9140 -35.9132
   -35.9116 -35.9092 -35.9090 -35.9071 -14.7299 -14.7276 -14.7254 -14.7248
   -14.7163 -14.7144 -14.6968 -14.6963 -14.6892 -14.6871  -3.5060  -3.2811
     3.7678   3.9419   5.7102   5.7298   6.0823   6.1949   8.9678   9.8195
    10.0946  10.1248  11.1782  11.4330  11.7623  12.5730  12.7306  13.0716

          k =-0.2400 0.0000-0.3164 (  4906 PWs)   bands (ev):

   -69.7595 -69.1603 -69.1597 -36.5108 -36.5071 -36.5070 -35.9139 -35.9131
   -35.9114 -35.9092 -35.9090 -35.9069 -14.7298 -14.7276 -14.7254 -14.7248
   -14.7164 -14.7145 -14.6970 -14.6964 -14.6890 -14.6872  -3.5254  -3.2960
     3.8027   3.9936   5.7490   5.7636   6.1380   6.2489   8.9848   9.7806
    10.0511  10.1133  11.2330  11.5266  11.6964  12.4118  12.7185  13.1563

          k =-0.2266 0.0000-0.3164 (  4914 PWs)   bands (ev):

   -69.7595 -69.1604 -69.1597 -36.5111 -36.5073 -36.5072 -35.9140 -35.9130
   -35.9119 -35.9095 -35.9094 -35.9069 -14.7297 -14.7277 -14.7255 -14.7248
   -14.7166 -14.7146 -14.6971 -14.6966 -14.6890 -14.6873  -3.5443  -3.3106
     3.8347   4.0421   5.7873   5.8023   6.1987   6.3023   9.0049   9.7387
     9.9744  10.1356  11.2664  11.6230  11.6275  12.2563  12.7367  13.1650

          k =-0.2133 0.0000-0.3164 (  4912 PWs)   bands (ev):

   -69.7595 -69.1604 -69.1597 -36.5111 -36.5071 -36.5071 -35.9139 -35.9128
   -35.9117 -35.9096 -35.9093 -35.9070 -14.7297 -14.7278 -14.7255 -14.7248
   -14.7167 -14.7147 -14.6972 -14.6967 -14.6889 -14.6873  -3.5624  -3.3246
     3.8641   4.0873   5.8279   5.8467   6.2616   6.3545   9.0280   9.6941
     9.8970  10.1620  11.2492  11.5938  11.7211  12.1085  12.7760  13.0316

          k =-0.2000 0.0000-0.3164 (  4920 PWs)   bands (ev):

   -69.7596 -69.1604 -69.1597 -36.5114 -36.5075 -36.5072 -35.9140 -35.9132
   -35.9118 -35.9100 -35.9093 -35.9073 -14.7296 -14.7279 -14.7255 -14.7248
   -14.7168 -14.7148 -14.6973 -14.6969 -14.6888 -14.6874  -3.5798  -3.3381
     3.8905   4.1284   5.8725   5.8968   6.3247   6.4049   9.0540   9.6467
     9.8173  10.1924  11.1714  11.6115  11.8188  11.9690  12.8278  12.8819

          k =-0.1866 0.0000-0.3164 (  4920 PWs)   bands (ev):

   -69.7596 -69.1604 -69.1597 -36.5114 -36.5075 -36.5072 -35.9140 -35.9134
   -35.9116 -35.9100 -35.9093 -35.9072 -14.7295 -14.7280 -14.7255 -14.7248
   -14.7169 -14.7149 -14.6974 -14.6970 -14.6887 -14.6875  -3.5962  -3.3510
     3.9143   4.1655   5.9223   5.9527   6.3863   6.4531   9.0817   9.5961
     9.7383  10.2272  11.0615  11.6572  11.8384  11.9128  12.7381  12.8868

          k =-0.1733 0.0000-0.3164 (  4910 PWs)   bands (ev):

   -69.7595 -69.1604 -69.1597 -36.5109 -36.5072 -36.5070 -35.9139 -35.9130
   -35.9112 -35.9097 -35.9094 -35.9066 -14.7294 -14.7280 -14.7254 -14.7249
   -14.7170 -14.7150 -14.6975 -14.6972 -14.6886 -14.6875  -3.6117  -3.3632
     3.9352   4.1984   5.9780   6.0141   6.4455   6.4987   9.1091   9.5417
     9.6630  10.2664  10.9421  11.7103  11.7175  11.9936  12.6095  12.9494

          k =-0.1600 0.0000-0.3164 (  4914 PWs)   bands (ev):

   -69.7596 -69.1604 -69.1597 -36.5111 -36.5073 -36.5071 -35.9139 -35.9130
   -35.9111 -35.9098 -35.9096 -35.9070 -14.7293 -14.7281 -14.7254 -14.7249
   -14.7171 -14.7151 -14.6976 -14.6973 -14.6885 -14.6876  -3.6263  -3.3748
     3.9529   4.2270   6.0394   6.0806   6.5012   6.5414   9.1294   9.4829
     9.5961  10.3091  10.8241  11.6065  11.7602  12.0383  12.5208  13.0130

          k =-0.1467 0.0000-0.3164 (  4914 PWs)   bands (ev):

   -69.7596 -69.1604 -69.1597 -36.5111 -36.5073 -36.5071 -35.9137 -35.9130
   -35.9111 -35.9099 -35.9097 -35.9070 -14.7293 -14.7282 -14.7254 -14.7249
   -14.7172 -14.7152 -14.6977 -14.6974 -14.6884 -14.6876  -3.6399  -3.3856
     3.9682   4.2514   6.1062   6.1514   6.5531   6.5811   9.1341   9.4194
     9.5482  10.3542  10.7145  11.5058  11.8024  12.0130  12.5058  13.0761

          k =-0.1333 0.0000-0.3164 (  4926 PWs)   bands (ev):

   -69.7596 -69.1604 -69.1597 -36.5112 -36.5078 -36.5076 -35.9143 -35.9135
   -35.9113 -35.9103 -35.9101 -35.9070 -14.7292 -14.7283 -14.7254 -14.7250
   -14.7173 -14.7153 -14.6978 -14.6975 -14.6884 -14.6877  -3.6525  -3.3957
     3.9808   4.2718   6.1776   6.2258   6.6007   6.6174   9.1109   9.3507
     9.5308  10.3966  10.6207  11.4150  11.8328  11.9203  12.5617  13.1374

          k =-0.1200 0.0000-0.3164 (  4932 PWs)   bands (ev):

   -69.7596 -69.1604 -69.1597 -36.5115 -36.5079 -36.5076 -35.9142 -35.9142
   -35.9119 -35.9103 -35.9099 -35.9070 -14.7291 -14.7284 -14.7254 -14.7250
   -14.7174 -14.7153 -14.6979 -14.6977 -14.6883 -14.6878  -3.6639  -3.4049
     3.9915   4.2888   6.2528   6.3027   6.6438   6.6505   9.0579   9.2773
     9.5487  10.4153  10.5663  11.3346  11.7945  11.8490  12.6540  13.1966

          k =-0.1067 0.0000-0.3164 (  4932 PWs)   bands (ev):

   -69.7596 -69.1604 -69.1597 -36.5118 -36.5077 -36.5076 -35.9142 -35.9142
   -35.9122 -35.9099 -35.9097 -35.9072 -14.7291 -14.7285 -14.7253 -14.7250
   -14.7175 -14.7154 -14.6979 -14.6977 -14.6883 -14.6878  -3.6743  -3.4132
     4.0003   4.3029   6.3306   6.3809   6.6802   6.6823   8.9837   9.2002
     9.5943  10.3794  10.5825  11.2639  11.6589  11.8494  12.7625  13.2530

          k =-0.0933 0.0000-0.3164 (  4928 PWs)   bands (ev):

   -69.7596 -69.1604 -69.1597 -36.5118 -36.5076 -36.5073 -35.9142 -35.9140
   -35.9121 -35.9099 -35.9094 -35.9072 -14.7290 -14.7286 -14.7253 -14.7251
   -14.7175 -14.7155 -14.6980 -14.6978 -14.6882 -14.6879  -3.6835  -3.4206
     4.0075   4.3143   6.4093   6.4588   6.7064   6.7160   8.9000   9.1206
     9.6567  10.3221  10.6358  11.2027  11.5207  11.8335  12.8788  13.3062

          k =-0.0800 0.0000-0.3164 (  4934 PWs)   bands (ev):

   -69.7596 -69.1604 -69.1597 -36.5119 -36.5078 -36.5075 -35.9142 -35.9141
   -35.9121 -35.9102 -35.9098 -35.9074 -14.7290 -14.7286 -14.7253 -14.7251
   -14.7176 -14.7155 -14.6980 -14.6979 -14.6882 -14.6879  -3.6915  -3.4271
     4.0129   4.3232   6.4870   6.5344   6.7293   6.7448   8.8134   9.0407
     9.7293  10.2679  10.7000  11.1503  11.3834  11.8024  12.9991  13.3543

          k =-0.0667 0.0000-0.3164 (  4930 PWs)   bands (ev):

   -69.7596 -69.1604 -69.1597 -36.5115 -36.5079 -36.5075 -35.9143 -35.9141
   -35.9117 -35.9103 -35.9097 -35.9070 -14.7289 -14.7287 -14.7253 -14.7251
   -14.7176 -14.7156 -14.6980 -14.6980 -14.6881 -14.6879  -3.6983  -3.4327
     4.0176   4.3303   6.5615   6.6056   6.7488   6.7689   8.7292   8.9641
     9.8095  10.2223  10.7684  11.1058  11.2519  11.7592  13.1216  13.3958

          k =-0.0533 0.0000-0.3164 (  4926 PWs)   bands (ev):

   -69.7596 -69.1604 -69.1597 -36.5110 -36.5078 -36.5077 -35.9143 -35.9142
   -35.9115 -35.9101 -35.9100 -35.9064 -14.7289 -14.7287 -14.7252 -14.7251
   -14.7176 -14.7156 -14.6981 -14.6980 -14.6881 -14.6880  -3.7039  -3.4372
     4.0213   4.3358   6.6299   6.6693   6.7654   6.7881   8.6517   8.8938
     9.8930  10.1857  10.8373  11.0659  11.1309  11.7078  13.2446  13.4285

          k =-0.0400 0.0000-0.3164 (  4926 PWs)   bands (ev):

   -69.7596 -69.1604 -69.1597 -36.5107 -36.5079 -36.5079 -35.9146 -35.9144
   -35.9113 -35.9102 -35.9101 -35.9059 -14.7289 -14.7288 -14.7252 -14.7252
   -14.7177 -14.7156 -14.6981 -14.6981 -14.6881 -14.6880  -3.7083  -3.4407
     4.0238   4.3396   6.6892   6.7220   6.7797   6.8023   8.5850   8.8337
     9.9748  10.1578  10.9033  10.9969  11.0581  11.6532  13.3667  13.4510

          k =-0.0267 0.0000-0.3164 (  4930 PWs)   bands (ev):

   -69.7596 -69.1604 -69.1597 -36.5106 -36.5085 -36.5078 -35.9151 -35.9145
   -35.9110 -35.9106 -35.9100 -35.9059 -14.7289 -14.7288 -14.7252 -14.7252
   -14.7177 -14.7156 -14.6981 -14.6981 -14.6880 -14.6880  -3.7115  -3.4433
     4.0255   4.3422   6.7362   6.7584   6.7942   6.8114   8.5333   8.7871
    10.0482  10.1384  10.9047  10.9607  11.0337  11.6025  13.4647  13.4864

          k =-0.0133 0.0000-0.3164 (  4918 PWs)   bands (ev):

   -69.7596 -69.1604 -69.1597 -36.5104 -36.5079 -36.5076 -35.9144 -35.9143
   -35.9106 -35.9101 -35.9098 -35.9058 -14.7288 -14.7288 -14.7252 -14.7252
   -14.7177 -14.7156 -14.6981 -14.6981 -14.6880 -14.6880  -3.7133  -3.4448
     4.0267   4.3440   6.7678   6.7753   6.8091   6.8153   8.5013   8.7577
    10.1028  10.1271  10.8383  11.0020  11.0214  11.5650  13.4724  13.6012

          k =-0.0000 0.0000-0.3164 (  4914 PWs)   bands (ev):

   -69.7596 -69.1604 -69.1597 -36.5104 -36.5076 -36.5076 -35.9142 -35.9142
   -35.9106 -35.9097 -35.9097 -35.9058 -14.7288 -14.7288 -14.7252 -14.7252
   -14.7177 -14.7156 -14.6981 -14.6981 -14.6880 -14.6880  -3.7139  -3.4453
     4.0271   4.3445   6.7795   6.7795   6.8158   6.8158   8.4903   8.7476
    10.1233  10.1233  10.8134  11.0174  11.0174  11.5508  13.4748  13.6834

     Writing output data file ../out/m2.save/

     init_run     :      0.61s CPU      0.60s WALL (       1 calls)
     electrons    :  36831.81s CPU  27396.34s WALL (       1 calls)

     Called by init_run:
     wfcinit      :      0.02s CPU      0.03s WALL (       1 calls)
     wfcinit:atom :      0.44s CPU      0.24s WALL (     351 calls)
     wfcinit:wfcr :    422.03s CPU    301.17s WALL (     351 calls)
     potinit      :      0.02s CPU      0.04s WALL (       1 calls)
     hinit0       :      0.25s CPU      0.26s WALL (       1 calls)

     Called by electrons:
     c_bands      :  36831.65s CPU  27396.24s WALL (       1 calls)
     v_of_rho     :      0.02s CPU      0.02s WALL (       1 calls)
     v_h          :      0.00s CPU      0.00s WALL (       1 calls)
     v_xc         :      0.02s CPU      0.02s WALL (       1 calls)
     newd         :      0.27s CPU      0.22s WALL (       1 calls)

     Called by c_bands:
     init_us_2    :      0.45s CPU      0.26s WALL (     351 calls)
     cegterg      :  36369.29s CPU  27067.24s WALL (    1212 calls)

     Called by sum_band:

     Called by *egterg:
     cdiaghg      :   9316.63s CPU   7708.15s WALL (   21341 calls)
     cegterg:over :   8124.38s CPU   5647.83s WALL (   20990 calls)
     cegterg:upda :   5160.11s CPU   3800.81s WALL (   20990 calls)
     cegterg:last :   6209.52s CPU   4484.14s WALL (    9871 calls)
     cdiaghg:chol :   1032.34s CPU    802.01s WALL (   21341 calls)
     cdiaghg:inve :    139.76s CPU    113.54s WALL (   21341 calls)
     cdiaghg:para :   5615.09s CPU   4374.71s WALL (   42682 calls)
     h_psi        :   5649.72s CPU   4116.50s WALL (   22553 calls)
     s_psi        :    128.84s CPU    103.79s WALL (   22553 calls)
     g_psi        :      5.26s CPU      3.01s WALL (   20990 calls)

     Called by h_psi:
     h_psi:calbec :   3560.31s CPU   2701.43s WALL (   22553 calls)
     vloc_psi     :   1433.97s CPU    862.28s WALL (   22553 calls)
     add_vuspsi   :    651.05s CPU    549.60s WALL (   22553 calls)

     General routines
     calbec       :   3559.71s CPU   2700.37s WALL (   22553 calls)
     fft          :      0.01s CPU      0.02s WALL (      13 calls)
     ffts         :      0.00s CPU      0.00s WALL (       1 calls)
     fftw         :   1387.98s CPU    833.35s WALL (  789174 calls)
     interpolate  :      0.00s CPU      0.00s WALL (       1 calls)
     davcio       :      0.30s CPU      0.22s WALL (     702 calls)

     Parallel routines
     fft_scatt_xy :     38.81s CPU     23.57s WALL (  789188 calls)
     fft_scatt_yz :   1174.97s CPU    702.83s WALL (  789188 calls)

     PWSCF        :     10h13m CPU      7h36m WALL


   This run was terminated on:  16: 6:55  26Oct2023            

=------------------------------------------------------------------------------=
   JOB DONE.
=------------------------------------------------------------------------------=
