
     Program BANDS v.6.7MaX starts on 26Oct2023 at 16: 6:56 

     This program is part of the open-source Quantum ESPRESSO suite
     for quantum simulation of materials; please cite
         "P. Giannozzi et al., J. Phys.:Condens. Matter 21 395502 (2009);
         "P. Giannozzi et al., J. Phys.:Condens. Matter 29 465901 (2017);
          URL http://www.quantum-espresso.org", 
     in publications or presentations arising from this work. More details at
     http://www.quantum-espresso.org/quote

     Parallel version (MPI), running on     4 processors

     MPI processes distributed on     1 nodes
     R & G space division:  proc/nbgrp/npool/nimage =       4

     Reading xml data from directory:

     ../out/m2.save/
     file Bi.pbe-dn-rrkjus_psl.1.0.0.UPF: wavefunction(s)  5D renormalized
     file Mg.pbe-spnl-rrkjus_psl.1.0.0.UPF: wavefunction(s)  2P renormalized

     IMPORTANT: XC functional enforced from input :
     Exchange-correlation= PBE
                           (   1   4   3   4   0   0   0)
     Any further DFT definition will be discarded
     Please, verify this is what you really want


     Parallelization info
     --------------------
     sticks:   dense  smooth     PW     G-vecs:    dense   smooth      PW
     Min         486     241     70                27690     9785    1522
     Max         487     243     71                27701     9790    1527
     Sum        1945     967    283               110773    39149    6099


     Check: negative core charge=   -0.000010
     Reading collected, re-writing distributed wavefunctions
     high-symmetry point: -0.5000-0.2887 0.0000   x coordinate   0.0000
     high-symmetry point:  0.0000 0.0000 0.0000   x coordinate   0.5774
     high-symmetry point: -0.6666 0.0000 0.0000   x coordinate   1.2440
     high-symmetry point:  0.0000 0.0000 0.0000   x coordinate   1.9106
     high-symmetry point:  0.0000 0.0000-0.3164   x coordinate   2.2270
     high-symmetry point: -0.5000-0.2887-0.3164   x coordinate   2.8044
     high-symmetry point: -0.6666 0.0000-0.3164   x coordinate   3.1377
     high-symmetry point:  0.0000 0.0000-0.3164   x coordinate   3.8043

     Plottable bands (eV) written to file Mg3Bi2.bands.gnu
     Bands written to file Mg3Bi2.bands

 **************************************************************************

                    xk=(  -0.50000,  -0.28868,   0.00000  )

     point group C_2h (2/m) 
     there are  4 classes
     the character table:

       E     C2    i     s_h  
A_g    1.00  1.00  1.00  1.00
B_g    1.00 -1.00  1.00 -1.00
A_u    1.00  1.00 -1.00 -1.00
B_u    1.00 -1.00 -1.00  1.00

     the symmetry operations in each class and the name of the first element:

     E        1
                                                                 
     C2       2
                                                                 
     i        3
                                                                 
     s_h      4
                                                                 

     Band symmetry, C_2h (2/m)  point group:

     e(  1 -  1) =    -69.75946  eV     1   --> A_g            
     e(  2 -  2) =    -69.16007  eV     1   --> B_u            
     e(  3 -  3) =    -69.15979  eV     1   --> A_g            
     e(  4 -  4) =    -36.51003  eV     1   --> B_u            
     e(  5 -  5) =    -36.50683  eV     1   --> A_u            
     e(  6 -  6) =    -36.50612  eV     1   --> B_u            
     e(  7 -  7) =    -35.91333  eV     1   --> A_u            
     e(  8 -  8) =    -35.91245  eV     1   --> A_g            
     e(  9 -  9) =    -35.91143  eV     1   --> B_u            
     e( 10 - 10) =    -35.90922  eV     1   --> B_g            
     e( 11 - 11) =    -35.90666  eV     1   --> B_u            
     e( 12 - 12) =    -35.90646  eV     1   --> A_g            
     e( 13 - 13) =    -14.73273  eV     1   --> A_g            
     e( 14 - 14) =    -14.72747  eV     1   --> A_u            
     e( 15 - 15) =    -14.72604  eV     1   --> B_u            
     e( 16 - 16) =    -14.72124  eV     1   --> B_g            
     e( 17 - 17) =    -14.71475  eV     1   --> A_g            
     e( 18 - 18) =    -14.71266  eV     1   --> B_u            
     e( 19 - 19) =    -14.69395  eV     1   --> A_g            
     e( 20 - 20) =    -14.69348  eV     1   --> A_u            
     e( 21 - 21) =    -14.69233  eV     1   --> B_u            
     e( 22 - 22) =    -14.68456  eV     1   --> B_g            
     e( 23 - 23) =     -3.21739  eV     1   --> B_u            
     e( 24 - 24) =     -2.93452  eV     1   --> A_g            
     e( 25 - 25) =      2.84808  eV     1   --> A_g            
     e( 26 - 26) =      3.73851  eV     1   --> B_u            
     e( 27 - 27) =      4.26749  eV     1   --> B_u            
     e( 28 - 28) =      5.23480  eV     1   --> A_u            
     e( 29 - 29) =      5.31165  eV     1   --> A_g            
     e( 30 - 30) =      6.69109  eV     1   --> B_g            
     e( 31 - 31) =      7.68903  eV     1   --> A_g            
     e( 32 - 32) =      8.97874  eV     1   --> B_u            
     e( 33 - 33) =      9.61270  eV     1   --> A_g            
     e( 34 - 34) =     10.19120  eV     1   --> A_u            
     e( 35 - 35) =     12.24260  eV     1   --> B_u            
     e( 36 - 36) =     12.27902  eV     1   --> A_g            
     e( 37 - 37) =     13.13058  eV     1   --> B_u            
     e( 38 - 38) =     13.60566  eV     1   --> A_g            
     e( 39 - 39) =     14.89837  eV     1   --> A_u            
     e( 40 - 40) =     14.92373  eV     1   --> B_g            

 **************************************************************************

 **************************************************************************

                    xk=(  -0.49000,  -0.28290,   0.00000  )

     point group C_s (m)    
     there are  2 classes
     the character table:

       E     s    
A'     1.00  1.00
A''    1.00 -1.00

     the symmetry operations in each class and the name of the first element:

     E        1
                                                                 
     s        2
                                                                 

     Band symmetry, C_s (m)     point group:

     e(  1 -  1) =    -69.75946  eV     1   --> A'             
     e(  2 -  2) =    -69.16007  eV     1   --> A'             
     e(  3 -  3) =    -69.15979  eV     1   --> A'             
     e(  4 -  4) =    -36.51044  eV     1   --> A'             
     e(  5 -  5) =    -36.50670  eV     1   --> A''            
     e(  6 -  6) =    -36.50585  eV     1   --> A'             
     e(  7 -  7) =    -35.91321  eV     1   --> A''            
     e(  8 -  8) =    -35.91225  eV     1   --> A'             
     e(  9 -  9) =    -35.91139  eV     1   --> A'             
     e( 10 - 10) =    -35.90910  eV     1   --> A''            
     e( 11 - 11) =    -35.90697  eV     1   --> A'             
     e( 12 - 12) =    -35.90668  eV     1   --> A'             
     e( 13 - 13) =    -14.73273  eV     1   --> A'             
     e( 14 - 14) =    -14.72747  eV     1   --> A''            
     e( 15 - 15) =    -14.72604  eV     1   --> A'             
     e( 16 - 16) =    -14.72124  eV     1   --> A''            
     e( 17 - 17) =    -14.71475  eV     1   --> A'             
     e( 18 - 18) =    -14.71267  eV     1   --> A'             
     e( 19 - 19) =    -14.69397  eV     1   --> A'             
     e( 20 - 20) =    -14.69347  eV     1   --> A''            
     e( 21 - 21) =    -14.69232  eV     1   --> A'             
     e( 22 - 22) =    -14.68458  eV     1   --> A''            
     e( 23 - 23) =     -3.21877  eV     1   --> A'             
     e( 24 - 24) =     -2.93413  eV     1   --> A'             
     e( 25 - 25) =      2.85023  eV     1   --> A'             
     e( 26 - 26) =      3.74043  eV     1   --> A'             
     e( 27 - 27) =      4.26216  eV     1   --> A'             
     e( 28 - 28) =      5.23561  eV     1   --> A''            
     e( 29 - 29) =      5.31764  eV     1   --> A'             
     e( 30 - 30) =      6.69169  eV     1   --> A''            
     e( 31 - 31) =      7.69013  eV     1   --> A'             
     e( 32 - 32) =      8.97928  eV     1   --> A'             
     e( 33 - 33) =      9.61351  eV     1   --> A'             
     e( 34 - 34) =     10.19192  eV     1   --> A''            
     e( 35 - 35) =     12.21576  eV     1   --> A'             
     e( 36 - 36) =     12.29807  eV     1   --> A'             
     e( 37 - 37) =     13.13635  eV     1   --> A'             
     e( 38 - 38) =     13.60974  eV     1   --> A'             
     e( 39 - 39) =     14.80427  eV     1   --> A''            
     e( 40 - 40) =     15.00974  eV     1   --> A''            

 **************************************************************************

 **************************************************************************

                    xk=(  -0.48000,  -0.27713,   0.00000  )

     Band symmetry, C_s (m)     point group:

     e(  1 -  1) =    -69.75946  eV     1   --> A'             
     e(  2 -  2) =    -69.16007  eV     1   --> A'             
     e(  3 -  3) =    -69.15978  eV     1   --> A'             
     e(  4 -  4) =    -36.51043  eV     1   --> A'             
     e(  5 -  5) =    -36.50643  eV     1   --> A''            
     e(  6 -  6) =    -36.50596  eV     1   --> A'             
     e(  7 -  7) =    -35.91294  eV     1   --> A''            
     e(  8 -  8) =    -35.91240  eV     1   --> A'             
     e(  9 -  9) =    -35.91140  eV     1   --> A'             
     e( 10 - 10) =    -35.90884  eV     1   --> A''            
     e( 11 - 11) =    -35.90699  eV     1   --> A'             
     e( 12 - 12) =    -35.90669  eV     1   --> A'             
     e( 13 - 13) =    -14.73271  eV     1   --> A'             
     e( 14 - 14) =    -14.72747  eV     1   --> A''            
     e( 15 - 15) =    -14.72603  eV     1   --> A'             
     e( 16 - 16) =    -14.72125  eV     1   --> A''            
     e( 17 - 17) =    -14.71475  eV     1   --> A'             
     e( 18 - 18) =    -14.71269  eV     1   --> A'             
     e( 19 - 19) =    -14.69400  eV     1   --> A'             
     e( 20 - 20) =    -14.69349  eV     1   --> A''            
     e( 21 - 21) =    -14.69229  eV     1   --> A'             
     e( 22 - 22) =    -14.68458  eV     1   --> A''            
     e( 23 - 23) =     -3.22289  eV     1   --> A'             
     e( 24 - 24) =     -2.93307  eV     1   --> A'             
     e( 25 - 25) =      2.85658  eV     1   --> A'             
     e( 26 - 26) =      3.74584  eV     1   --> A'             
     e( 27 - 27) =      4.24728  eV     1   --> A'             
     e( 28 - 28) =      5.23795  eV     1   --> A''            
     e( 29 - 29) =      5.33556  eV     1   --> A'             
     e( 30 - 30) =      6.69349  eV     1   --> A''            
     e( 31 - 31) =      7.69355  eV     1   --> A'             
     e( 32 - 32) =      8.98087  eV     1   --> A'             
     e( 33 - 33) =      9.61608  eV     1   --> A'             
     e( 34 - 34) =     10.19422  eV     1   --> A''            
     e( 35 - 35) =     12.17069  eV     1   --> A'             
     e( 36 - 36) =     12.32074  eV     1   --> A'             
     e( 37 - 37) =     13.15347  eV     1   --> A'             
     e( 38 - 38) =     13.62141  eV     1   --> A'             
     e( 39 - 39) =     14.69225  eV     1   --> A''            
     e( 40 - 40) =     14.95575  eV     1   --> A'             

 **************************************************************************

 **************************************************************************

                    xk=(  -0.47000,  -0.27135,   0.00000  )

     Band symmetry, C_s (m)     point group:

     e(  1 -  1) =    -69.75945  eV     1   --> A'             
     e(  2 -  2) =    -69.16007  eV     1   --> A'             
     e(  3 -  3) =    -69.15978  eV     1   --> A'             
     e(  4 -  4) =    -36.51040  eV     1   --> A'             
     e(  5 -  5) =    -36.50643  eV     1   --> A''            
     e(  6 -  6) =    -36.50580  eV     1   --> A'             
     e(  7 -  7) =    -35.91294  eV     1   --> A''            
     e(  8 -  8) =    -35.91217  eV     1   --> A'             
     e(  9 -  9) =    -35.91136  eV     1   --> A'             
     e( 10 - 10) =    -35.90884  eV     1   --> A''            
     e( 11 - 11) =    -35.90695  eV     1   --> A'             
     e( 12 - 12) =    -35.90664  eV     1   --> A'             
     e( 13 - 13) =    -14.73269  eV     1   --> A'             
     e( 14 - 14) =    -14.72747  eV     1   --> A''            
     e( 15 - 15) =    -14.72602  eV     1   --> A'             
     e( 16 - 16) =    -14.72127  eV     1   --> A''            
     e( 17 - 17) =    -14.71476  eV     1   --> A'             
     e( 18 - 18) =    -14.71270  eV     1   --> A'             
     e( 19 - 19) =    -14.69405  eV     1   --> A'             
     e( 20 - 20) =    -14.69351  eV     1   --> A''            
     e( 21 - 21) =    -14.69223  eV     1   --> A'             
     e( 22 - 22) =    -14.68460  eV     1   --> A''            
     e( 23 - 23) =     -3.22964  eV     1   --> A'             
     e( 24 - 24) =     -2.93141  eV     1   --> A'             
     e( 25 - 25) =      2.86696  eV     1   --> A'             
     e( 26 - 26) =      3.75478  eV     1   --> A'             
     e( 27 - 27) =      4.22370  eV     1   --> A'             
     e( 28 - 28) =      5.24179  eV     1   --> A''            
     e( 29 - 29) =      5.36432  eV     1   --> A'             
     e( 30 - 30) =      6.69645  eV     1   --> A''            
     e( 31 - 31) =      7.69927  eV     1   --> A'             
     e( 32 - 32) =      8.98355  eV     1   --> A'             
     e( 33 - 33) =      9.62049  eV     1   --> A'             
     e( 34 - 34) =     10.19769  eV     1   --> A''            
     e( 35 - 35) =     12.11941  eV     1   --> A'             
     e( 36 - 36) =     12.33551  eV     1   --> A'             
     e( 37 - 37) =     13.18199  eV     1   --> A'             
     e( 38 - 38) =     13.63983  eV     1   --> A'             
     e( 39 - 39) =     14.57467  eV     1   --> A''            
     e( 40 - 40) =     14.82351  eV     1   --> A'             

 **************************************************************************

 **************************************************************************

                    xk=(  -0.46000,  -0.26558,   0.00000  )

     Band symmetry, C_s (m)     point group:

     e(  1 -  1) =    -69.75945  eV     1   --> A'             
     e(  2 -  2) =    -69.16006  eV     1   --> A'             
     e(  3 -  3) =    -69.15978  eV     1   --> A'             
     e(  4 -  4) =    -36.51021  eV     1   --> A'             
     e(  5 -  5) =    -36.50649  eV     1   --> A''            
     e(  6 -  6) =    -36.50591  eV     1   --> A'             
     e(  7 -  7) =    -35.91314  eV     1   --> A''            
     e(  8 -  8) =    -35.91218  eV     1   --> A'             
     e(  9 -  9) =    -35.91140  eV     1   --> A'             
     e( 10 - 10) =    -35.90874  eV     1   --> A''            
     e( 11 - 11) =    -35.90697  eV     1   --> A'             
     e( 12 - 12) =    -35.90641  eV     1   --> A'             
     e( 13 - 13) =    -14.73263  eV     1   --> A'             
     e( 14 - 14) =    -14.72748  eV     1   --> A''            
     e( 15 - 15) =    -14.72602  eV     1   --> A'             
     e( 16 - 16) =    -14.72129  eV     1   --> A''            
     e( 17 - 17) =    -14.71477  eV     1   --> A'             
     e( 18 - 18) =    -14.71274  eV     1   --> A'             
     e( 19 - 19) =    -14.69411  eV     1   --> A'             
     e( 20 - 20) =    -14.69355  eV     1   --> A''            
     e( 21 - 21) =    -14.69216  eV     1   --> A'             
     e( 22 - 22) =    -14.68463  eV     1   --> A''            
     e( 23 - 23) =     -3.23884  eV     1   --> A'             
     e( 24 - 24) =     -2.92933  eV     1   --> A'             
     e( 25 - 25) =      2.88151  eV     1   --> A'             
     e( 26 - 26) =      3.76711  eV     1   --> A'             
     e( 27 - 27) =      4.19277  eV     1   --> A'             
     e( 28 - 28) =      5.24710  eV     1   --> A''            
     e( 29 - 29) =      5.40244  eV     1   --> A'             
     e( 30 - 30) =      6.70057  eV     1   --> A''            
     e( 31 - 31) =      7.70679  eV     1   --> A'             
     e( 32 - 32) =      8.98722  eV     1   --> A'             
     e( 33 - 33) =      9.62674  eV     1   --> A'             
     e( 34 - 34) =     10.20250  eV     1   --> A''            
     e( 35 - 35) =     12.06423  eV     1   --> A'             
     e( 36 - 36) =     12.34182  eV     1   --> A'             
     e( 37 - 37) =     13.22117  eV     1   --> A'             
     e( 38 - 38) =     13.66338  eV     1   --> A'             
     e( 39 - 39) =     14.45357  eV     1   --> A''            
     e( 40 - 40) =     14.68506  eV     1   --> A'             

 **************************************************************************

 **************************************************************************

                    xk=(  -0.45000,  -0.25981,   0.00000  )

     Band symmetry, C_s (m)     point group:

     e(  1 -  1) =    -69.75945  eV     1   --> A'             
     e(  2 -  2) =    -69.16006  eV     1   --> A'             
     e(  3 -  3) =    -69.15978  eV     1   --> A'             
     e(  4 -  4) =    -36.51017  eV     1   --> A'             
     e(  5 -  5) =    -36.50650  eV     1   --> A''            
     e(  6 -  6) =    -36.50574  eV     1   --> A'             
     e(  7 -  7) =    -35.91318  eV     1   --> A''            
     e(  8 -  8) =    -35.91197  eV     1   --> A'             
     e(  9 -  9) =    -35.91129  eV     1   --> A'             
     e( 10 - 10) =    -35.90873  eV     1   --> A''            
     e( 11 - 11) =    -35.90697  eV     1   --> A'             
     e( 12 - 12) =    -35.90631  eV     1   --> A'             
     e( 13 - 13) =    -14.73258  eV     1   --> A'             
     e( 14 - 14) =    -14.72748  eV     1   --> A''            
     e( 15 - 15) =    -14.72601  eV     1   --> A'             
     e( 16 - 16) =    -14.72134  eV     1   --> A''            
     e( 17 - 17) =    -14.71478  eV     1   --> A'             
     e( 18 - 18) =    -14.71277  eV     1   --> A'             
     e( 19 - 19) =    -14.69420  eV     1   --> A'             
     e( 20 - 20) =    -14.69359  eV     1   --> A''            
     e( 21 - 21) =    -14.69206  eV     1   --> A'             
     e( 22 - 22) =    -14.68466  eV     1   --> A''            
     e( 23 - 23) =     -3.25024  eV     1   --> A'             
     e( 24 - 24) =     -2.92698  eV     1   --> A'             
     e( 25 - 25) =      2.90011  eV     1   --> A'             
     e( 26 - 26) =      3.78284  eV     1   --> A'             
     e( 27 - 27) =      4.15603  eV     1   --> A'             
     e( 28 - 28) =      5.25400  eV     1   --> A''            
     e( 29 - 29) =      5.44871  eV     1   --> A'             
     e( 30 - 30) =      6.70585  eV     1   --> A''            
     e( 31 - 31) =      7.71701  eV     1   --> A'             
     e( 32 - 32) =      8.99178  eV     1   --> A'             
     e( 33 - 33) =      9.63463  eV     1   --> A'             
     e( 34 - 34) =     10.20871  eV     1   --> A''            
     e( 35 - 35) =     12.00634  eV     1   --> A'             
     e( 36 - 36) =     12.33963  eV     1   --> A'             
     e( 37 - 37) =     13.26957  eV     1   --> A'             
     e( 38 - 38) =     13.68981  eV     1   --> A'             
     e( 39 - 39) =     14.32943  eV     1   --> A''            
     e( 40 - 40) =     14.54562  eV     1   --> A'             

 **************************************************************************

 **************************************************************************

                    xk=(  -0.44000,  -0.25403,   0.00000  )

     Band symmetry, C_s (m)     point group:

     e(  1 -  1) =    -69.75947  eV     1   --> A'             
     e(  2 -  2) =    -69.16008  eV     1   --> A'             
     e(  3 -  3) =    -69.15980  eV     1   --> A'             
     e(  4 -  4) =    -36.51039  eV     1   --> A'             
     e(  5 -  5) =    -36.50677  eV     1   --> A''            
     e(  6 -  6) =    -36.50595  eV     1   --> A'             
     e(  7 -  7) =    -35.91351  eV     1   --> A''            
     e(  8 -  8) =    -35.91210  eV     1   --> A'             
     e(  9 -  9) =    -35.91154  eV     1   --> A'             
     e( 10 - 10) =    -35.90892  eV     1   --> A''            
     e( 11 - 11) =    -35.90735  eV     1   --> A'             
     e( 12 - 12) =    -35.90639  eV     1   --> A'             
     e( 13 - 13) =    -14.73254  eV     1   --> A'             
     e( 14 - 14) =    -14.72750  eV     1   --> A''            
     e( 15 - 15) =    -14.72601  eV     1   --> A'             
     e( 16 - 16) =    -14.72140  eV     1   --> A''            
     e( 17 - 17) =    -14.71480  eV     1   --> A'             
     e( 18 - 18) =    -14.71281  eV     1   --> A'             
     e( 19 - 19) =    -14.69432  eV     1   --> A'             
     e( 20 - 20) =    -14.69366  eV     1   --> A''            
     e( 21 - 21) =    -14.69195  eV     1   --> A'             
     e( 22 - 22) =    -14.68472  eV     1   --> A''            
     e( 23 - 23) =     -3.26368  eV     1   --> A'             
     e( 24 - 24) =     -2.92457  eV     1   --> A'             
     e( 25 - 25) =      2.92255  eV     1   --> A'             
     e( 26 - 26) =      3.80129  eV     1   --> A'             
     e( 27 - 27) =      4.11503  eV     1   --> A'             
     e( 28 - 28) =      5.26234  eV     1   --> A''            
     e( 29 - 29) =      5.50126  eV     1   --> A'             
     e( 30 - 30) =      6.71224  eV     1   --> A''            
     e( 31 - 31) =      7.72905  eV     1   --> A'             
     e( 32 - 32) =      8.99703  eV     1   --> A'             
     e( 33 - 33) =      9.64419  eV     1   --> A'             
     e( 34 - 34) =     10.21609  eV     1   --> A''            
     e( 35 - 35) =     11.94639  eV     1   --> A'             
     e( 36 - 36) =     12.33002  eV     1   --> A'             
     e( 37 - 37) =     13.32605  eV     1   --> A'             
     e( 38 - 38) =     13.71505  eV     1   --> A'             
     e( 39 - 39) =     14.20329  eV     1   --> A''            
     e( 40 - 40) =     14.40942  eV     1   --> A'             

 **************************************************************************

 **************************************************************************

                    xk=(  -0.43000,  -0.24826,   0.00000  )

     Band symmetry, C_s (m)     point group:

     e(  1 -  1) =    -69.75947  eV     1   --> A'             
     e(  2 -  2) =    -69.16009  eV     1   --> A'             
     e(  3 -  3) =    -69.15978  eV     1   --> A'             
     e(  4 -  4) =    -36.51034  eV     1   --> A'             
     e(  5 -  5) =    -36.50679  eV     1   --> A''            
     e(  6 -  6) =    -36.50596  eV     1   --> A'             
     e(  7 -  7) =    -35.91351  eV     1   --> A''            
     e(  8 -  8) =    -35.91195  eV     1   --> A'             
     e(  9 -  9) =    -35.91160  eV     1   --> A'             
     e( 10 - 10) =    -35.90897  eV     1   --> A''            
     e( 11 - 11) =    -35.90731  eV     1   --> A'             
     e( 12 - 12) =    -35.90646  eV     1   --> A'             
     e( 13 - 13) =    -14.73247  eV     1   --> A'             
     e( 14 - 14) =    -14.72750  eV     1   --> A''            
     e( 15 - 15) =    -14.72602  eV     1   --> A'             
     e( 16 - 16) =    -14.72145  eV     1   --> A''            
     e( 17 - 17) =    -14.71482  eV     1   --> A'             
     e( 18 - 18) =    -14.71288  eV     1   --> A'             
     e( 19 - 19) =    -14.69443  eV     1   --> A'             
     e( 20 - 20) =    -14.69372  eV     1   --> A''            
     e( 21 - 21) =    -14.69184  eV     1   --> A'             
     e( 22 - 22) =    -14.68476  eV     1   --> A''            
     e( 23 - 23) =     -3.27884  eV     1   --> A'             
     e( 24 - 24) =     -2.92225  eV     1   --> A'             
     e( 25 - 25) =      2.94923  eV     1   --> A'             
     e( 26 - 26) =      3.82212  eV     1   --> A'             
     e( 27 - 27) =      4.07201  eV     1   --> A'             
     e( 28 - 28) =      5.27229  eV     1   --> A''            
     e( 29 - 29) =      5.55935  eV     1   --> A'             
     e( 30 - 30) =      6.71978  eV     1   --> A''            
     e( 31 - 31) =      7.74387  eV     1   --> A'             
     e( 32 - 32) =      9.00329  eV     1   --> A'             
     e( 33 - 33) =      9.65555  eV     1   --> A'             
     e( 34 - 34) =     10.22499  eV     1   --> A''            
     e( 35 - 35) =     11.88539  eV     1   --> A'             
     e( 36 - 36) =     12.31506  eV     1   --> A'             
     e( 37 - 37) =     13.38965  eV     1   --> A'             
     e( 38 - 38) =     13.73215  eV     1   --> A'             
     e( 39 - 39) =     14.07603  eV     1   --> A''            
     e( 40 - 40) =     14.28408  eV     1   --> A'             

 **************************************************************************

 **************************************************************************

                    xk=(  -0.42000,  -0.24249,   0.00000  )

     Band symmetry, C_s (m)     point group:

     e(  1 -  1) =    -69.75946  eV     1   --> A'             
     e(  2 -  2) =    -69.16010  eV     1   --> A'             
     e(  3 -  3) =    -69.15977  eV     1   --> A'             
     e(  4 -  4) =    -36.51029  eV     1   --> A'             
     e(  5 -  5) =    -36.50678  eV     1   --> A''            
     e(  6 -  6) =    -36.50585  eV     1   --> A'             
     e(  7 -  7) =    -35.91349  eV     1   --> A''            
     e(  8 -  8) =    -35.91184  eV     1   --> A'             
     e(  9 -  9) =    -35.91137  eV     1   --> A'             
     e( 10 - 10) =    -35.90898  eV     1   --> A''            
     e( 11 - 11) =    -35.90729  eV     1   --> A'             
     e( 12 - 12) =    -35.90648  eV     1   --> A'             
     e( 13 - 13) =    -14.73241  eV     1   --> A'             
     e( 14 - 14) =    -14.72751  eV     1   --> A''            
     e( 15 - 15) =    -14.72601  eV     1   --> A'             
     e( 16 - 16) =    -14.72152  eV     1   --> A''            
     e( 17 - 17) =    -14.71484  eV     1   --> A'             
     e( 18 - 18) =    -14.71293  eV     1   --> A'             
     e( 19 - 19) =    -14.69454  eV     1   --> A'             
     e( 20 - 20) =    -14.69379  eV     1   --> A''            
     e( 21 - 21) =    -14.69173  eV     1   --> A'             
     e( 22 - 22) =    -14.68481  eV     1   --> A''            
     e( 23 - 23) =     -3.29549  eV     1   --> A'             
     e( 24 - 24) =     -2.92019  eV     1   --> A'             
     e( 25 - 25) =      2.97984  eV     1   --> A'             
     e( 26 - 26) =      3.84372  eV     1   --> A'             
     e( 27 - 27) =      4.02939  eV     1   --> A'             
     e( 28 - 28) =      5.28374  eV     1   --> A''            
     e( 29 - 29) =      5.62153  eV     1   --> A'             
     e( 30 - 30) =      6.72841  eV     1   --> A''            
     e( 31 - 31) =      7.76093  eV     1   --> A'             
     e( 32 - 32) =      9.01052  eV     1   --> A'             
     e( 33 - 33) =      9.66868  eV     1   --> A'             
     e( 34 - 34) =     10.23527  eV     1   --> A''            
     e( 35 - 35) =     11.82407  eV     1   --> A'             
     e( 36 - 36) =     12.29586  eV     1   --> A'             
     e( 37 - 37) =     13.45890  eV     1   --> A'             
     e( 38 - 38) =     13.72781  eV     1   --> A'             
     e( 39 - 39) =     13.94811  eV     1   --> A''            
     e( 40 - 40) =     14.18230  eV     1   --> A'             

 **************************************************************************

 **************************************************************************

                    xk=(  -0.41000,  -0.23671,   0.00000  )

     Band symmetry, C_s (m)     point group:

     e(  1 -  1) =    -69.75945  eV     1   --> A'             
     e(  2 -  2) =    -69.16010  eV     1   --> A'             
     e(  3 -  3) =    -69.15975  eV     1   --> A'             
     e(  4 -  4) =    -36.51007  eV     1   --> A'             
     e(  5 -  5) =    -36.50684  eV     1   --> A''            
     e(  6 -  6) =    -36.50565  eV     1   --> A'             
     e(  7 -  7) =    -35.91365  eV     1   --> A''            
     e(  8 -  8) =    -35.91168  eV     1   --> A'             
     e(  9 -  9) =    -35.91117  eV     1   --> A'             
     e( 10 - 10) =    -35.90893  eV     1   --> A''            
     e( 11 - 11) =    -35.90706  eV     1   --> A'             
     e( 12 - 12) =    -35.90625  eV     1   --> A'             
     e( 13 - 13) =    -14.73232  eV     1   --> A'             
     e( 14 - 14) =    -14.72750  eV     1   --> A''            
     e( 15 - 15) =    -14.72599  eV     1   --> A'             
     e( 16 - 16) =    -14.72159  eV     1   --> A''            
     e( 17 - 17) =    -14.71486  eV     1   --> A'             
     e( 18 - 18) =    -14.71300  eV     1   --> A'             
     e( 19 - 19) =    -14.69465  eV     1   --> A'             
     e( 20 - 20) =    -14.69386  eV     1   --> A''            
     e( 21 - 21) =    -14.69161  eV     1   --> A'             
     e( 22 - 22) =    -14.68487  eV     1   --> A''            
     e( 23 - 23) =     -3.31345  eV     1   --> A'             
     e( 24 - 24) =     -2.91849  eV     1   --> A'             
     e( 25 - 25) =      3.01450  eV     1   --> A'             
     e( 26 - 26) =      3.86109  eV     1   --> A'             
     e( 27 - 27) =      3.99287  eV     1   --> A'             
     e( 28 - 28) =      5.29662  eV     1   --> A''            
     e( 29 - 29) =      5.68709  eV     1   --> A'             
     e( 30 - 30) =      6.73812  eV     1   --> A''            
     e( 31 - 31) =      7.78028  eV     1   --> A'             
     e( 32 - 32) =      9.01863  eV     1   --> A'             
     e( 33 - 33) =      9.68359  eV     1   --> A'             
     e( 34 - 34) =     10.24692  eV     1   --> A''            
     e( 35 - 35) =     11.76272  eV     1   --> A'             
     e( 36 - 36) =     12.27344  eV     1   --> A'             
     e( 37 - 37) =     13.53288  eV     1   --> A'             
     e( 38 - 38) =     13.68405  eV     1   --> A'             
     e( 39 - 39) =     13.82004  eV     1   --> A''            
     e( 40 - 40) =     14.12068  eV     1   --> A'             

 **************************************************************************

 **************************************************************************

                    xk=(  -0.40000,  -0.23094,   0.00000  )

     Band symmetry, C_s (m)     point group:

     e(  1 -  1) =    -69.75944  eV     1   --> A'             
     e(  2 -  2) =    -69.16009  eV     1   --> A'             
     e(  3 -  3) =    -69.15973  eV     1   --> A'             
     e(  4 -  4) =    -36.51004  eV     1   --> A'             
     e(  5 -  5) =    -36.50664  eV     1   --> A''            
     e(  6 -  6) =    -36.50516  eV     1   --> A'             
     e(  7 -  7) =    -35.91353  eV     1   --> A''            
     e(  8 -  8) =    -35.91146  eV     1   --> A'             
     e(  9 -  9) =    -35.91068  eV     1   --> A'             
     e( 10 - 10) =    -35.90865  eV     1   --> A''            
     e( 11 - 11) =    -35.90686  eV     1   --> A'             
     e( 12 - 12) =    -35.90613  eV     1   --> A'             
     e( 13 - 13) =    -14.73223  eV     1   --> A'             
     e( 14 - 14) =    -14.72750  eV     1   --> A''            
     e( 15 - 15) =    -14.72597  eV     1   --> A'             
     e( 16 - 16) =    -14.72166  eV     1   --> A''            
     e( 17 - 17) =    -14.71488  eV     1   --> A'             
     e( 18 - 18) =    -14.71305  eV     1   --> A'             
     e( 19 - 19) =    -14.69477  eV     1   --> A'             
     e( 20 - 20) =    -14.69392  eV     1   --> A''            
     e( 21 - 21) =    -14.69148  eV     1   --> A'             
     e( 22 - 22) =    -14.68493  eV     1   --> A''            
     e( 23 - 23) =     -3.33254  eV     1   --> A'             
     e( 24 - 24) =     -2.91726  eV     1   --> A'             
     e( 25 - 25) =      3.05281  eV     1   --> A'             
     e( 26 - 26) =      3.86016  eV     1   --> A'             
     e( 27 - 27) =      3.97718  eV     1   --> A'             
     e( 28 - 28) =      5.31111  eV     1   --> A''            
     e( 29 - 29) =      5.75546  eV     1   --> A'             
     e( 30 - 30) =      6.74889  eV     1   --> A''            
     e( 31 - 31) =      7.80241  eV     1   --> A'             
     e( 32 - 32) =      9.02755  eV     1   --> A'             
     e( 33 - 33) =      9.70037  eV     1   --> A'             
     e( 34 - 34) =     10.25987  eV     1   --> A''            
     e( 35 - 35) =     11.70159  eV     1   --> A'             
     e( 36 - 36) =     12.24864  eV     1   --> A'             
     e( 37 - 37) =     13.59591  eV     1   --> A'             
     e( 38 - 38) =     13.61084  eV     1   --> A'             
     e( 39 - 39) =     13.69219  eV     1   --> A''            
     e( 40 - 40) =     14.10203  eV     1   --> A'             

 **************************************************************************

 **************************************************************************

                    xk=(  -0.39000,  -0.22517,   0.00000  )

     Band symmetry, C_s (m)     point group:

     e(  1 -  1) =    -69.75945  eV     1   --> A'             
     e(  2 -  2) =    -69.16011  eV     1   --> A'             
     e(  3 -  3) =    -69.15972  eV     1   --> A'             
     e(  4 -  4) =    -36.50992  eV     1   --> A'             
     e(  5 -  5) =    -36.50672  eV     1   --> A''            
     e(  6 -  6) =    -36.50552  eV     1   --> A'             
     e(  7 -  7) =    -35.91363  eV     1   --> A''            
     e(  8 -  8) =    -35.91169  eV     1   --> A'             
     e(  9 -  9) =    -35.91074  eV     1   --> A'             
     e( 10 - 10) =    -35.90870  eV     1   --> A''            
     e( 11 - 11) =    -35.90681  eV     1   --> A'             
     e( 12 - 12) =    -35.90638  eV     1   --> A'             
     e( 13 - 13) =    -14.73216  eV     1   --> A'             
     e( 14 - 14) =    -14.72751  eV     1   --> A''            
     e( 15 - 15) =    -14.72597  eV     1   --> A'             
     e( 16 - 16) =    -14.72175  eV     1   --> A''            
     e( 17 - 17) =    -14.71491  eV     1   --> A'             
     e( 18 - 18) =    -14.71313  eV     1   --> A'             
     e( 19 - 19) =    -14.69491  eV     1   --> A'             
     e( 20 - 20) =    -14.69402  eV     1   --> A''            
     e( 21 - 21) =    -14.69136  eV     1   --> A'             
     e( 22 - 22) =    -14.68501  eV     1   --> A''            
     e( 23 - 23) =     -3.35264  eV     1   --> A'             
     e( 24 - 24) =     -2.91659  eV     1   --> A'             
     e( 25 - 25) =      3.09473  eV     1   --> A'             
     e( 26 - 26) =      3.83145  eV     1   --> A'             
     e( 27 - 27) =      3.99165  eV     1   --> A'             
     e( 28 - 28) =      5.32697  eV     1   --> A''            
     e( 29 - 29) =      5.82550  eV     1   --> A'             
     e( 30 - 30) =      6.76063  eV     1   --> A''            
     e( 31 - 31) =      7.82609  eV     1   --> A'             
     e( 32 - 32) =      9.03692  eV     1   --> A'             
     e( 33 - 33) =      9.71864  eV     1   --> A'             
     e( 34 - 34) =     10.27406  eV     1   --> A''            
     e( 35 - 35) =     11.64102  eV     1   --> A'             
     e( 36 - 36) =     12.22174  eV     1   --> A'             
     e( 37 - 37) =     13.47896  eV     1   --> A'             
     e( 38 - 38) =     13.56486  eV     1   --> A''            
     e( 39 - 39) =     13.69010  eV     1   --> A'             
     e( 40 - 40) =     14.10801  eV     1   --> A'             

 **************************************************************************

 **************************************************************************

                    xk=(  -0.38000,  -0.21939,   0.00000  )

     Band symmetry, C_s (m)     point group:

     e(  1 -  1) =    -69.75945  eV     1   --> A'             
     e(  2 -  2) =    -69.16013  eV     1   --> A'             
     e(  3 -  3) =    -69.15972  eV     1   --> A'             
     e(  4 -  4) =    -36.50991  eV     1   --> A'             
     e(  5 -  5) =    -36.50688  eV     1   --> A''            
     e(  6 -  6) =    -36.50572  eV     1   --> A'             
     e(  7 -  7) =    -35.91363  eV     1   --> A''            
     e(  8 -  8) =    -35.91179  eV     1   --> A'             
     e(  9 -  9) =    -35.91068  eV     1   --> A'             
     e( 10 - 10) =    -35.90903  eV     1   --> A''            
     e( 11 - 11) =    -35.90691  eV     1   --> A'             
     e( 12 - 12) =    -35.90659  eV     1   --> A'             
     e( 13 - 13) =    -14.73207  eV     1   --> A'             
     e( 14 - 14) =    -14.72751  eV     1   --> A''            
     e( 15 - 15) =    -14.72597  eV     1   --> A'             
     e( 16 - 16) =    -14.72185  eV     1   --> A''            
     e( 17 - 17) =    -14.71494  eV     1   --> A'             
     e( 18 - 18) =    -14.71323  eV     1   --> A'             
     e( 19 - 19) =    -14.69504  eV     1   --> A'             
     e( 20 - 20) =    -14.69413  eV     1   --> A''            
     e( 21 - 21) =    -14.69124  eV     1   --> A'             
     e( 22 - 22) =    -14.68509  eV     1   --> A''            
     e( 23 - 23) =     -3.37355  eV     1   --> A'             
     e( 24 - 24) =     -2.91651  eV     1   --> A'             
     e( 25 - 25) =      3.13983  eV     1   --> A'             
     e( 26 - 26) =      3.78893  eV     1   --> A'             
     e( 27 - 27) =      4.02343  eV     1   --> A'             
     e( 28 - 28) =      5.34436  eV     1   --> A''            
     e( 29 - 29) =      5.89721  eV     1   --> A'             
     e( 30 - 30) =      6.77330  eV     1   --> A''            
     e( 31 - 31) =      7.85265  eV     1   --> A'             
     e( 32 - 32) =      9.04681  eV     1   --> A'             
     e( 33 - 33) =      9.73847  eV     1   --> A'             
     e( 34 - 34) =     10.28930  eV     1   --> A''            
     e( 35 - 35) =     11.58083  eV     1   --> A'             
     e( 36 - 36) =     12.19356  eV     1   --> A'             
     e( 37 - 37) =     13.34785  eV     1   --> A'             
     e( 38 - 38) =     13.43837  eV     1   --> A''            
     e( 39 - 39) =     13.76966  eV     1   --> A'             
     e( 40 - 40) =     14.11970  eV     1   --> A'             

 **************************************************************************

 **************************************************************************

                    xk=(  -0.37000,  -0.21362,   0.00000  )

     Band symmetry, C_s (m)     point group:

     e(  1 -  1) =    -69.75948  eV     1   --> A'             
     e(  2 -  2) =    -69.16018  eV     1   --> A'             
     e(  3 -  3) =    -69.15972  eV     1   --> A'             
     e(  4 -  4) =    -36.51044  eV     1   --> A'             
     e(  5 -  5) =    -36.50696  eV     1   --> A''            
     e(  6 -  6) =    -36.50615  eV     1   --> A'             
     e(  7 -  7) =    -35.91373  eV     1   --> A''            
     e(  8 -  8) =    -35.91212  eV     1   --> A'             
     e(  9 -  9) =    -35.91127  eV     1   --> A'             
     e( 10 - 10) =    -35.90908  eV     1   --> A''            
     e( 11 - 11) =    -35.90752  eV     1   --> A'             
     e( 12 - 12) =    -35.90694  eV     1   --> A'             
     e( 13 - 13) =    -14.73198  eV     1   --> A'             
     e( 14 - 14) =    -14.72752  eV     1   --> A''            
     e( 15 - 15) =    -14.72598  eV     1   --> A'             
     e( 16 - 16) =    -14.72196  eV     1   --> A''            
     e( 17 - 17) =    -14.71500  eV     1   --> A'             
     e( 18 - 18) =    -14.71334  eV     1   --> A'             
     e( 19 - 19) =    -14.69519  eV     1   --> A'             
     e( 20 - 20) =    -14.69424  eV     1   --> A''            
     e( 21 - 21) =    -14.69113  eV     1   --> A'             
     e( 22 - 22) =    -14.68517  eV     1   --> A''            
     e( 23 - 23) =     -3.39513  eV     1   --> A'             
     e( 24 - 24) =     -2.91706  eV     1   --> A'             
     e( 25 - 25) =      3.18805  eV     1   --> A'             
     e( 26 - 26) =      3.74183  eV     1   --> A'             
     e( 27 - 27) =      4.06317  eV     1   --> A'             
     e( 28 - 28) =      5.36308  eV     1   --> A''            
     e( 29 - 29) =      5.96970  eV     1   --> A'             
     e( 30 - 30) =      6.78690  eV     1   --> A''            
     e( 31 - 31) =      7.88056  eV     1   --> A'             
     e( 32 - 32) =      9.05713  eV     1   --> A'             
     e( 33 - 33) =      9.75992  eV     1   --> A'             
     e( 34 - 34) =     10.30605  eV     1   --> A''            
     e( 35 - 35) =     11.52155  eV     1   --> A'             
     e( 36 - 36) =     12.16452  eV     1   --> A'             
     e( 37 - 37) =     13.21075  eV     1   --> A'             
     e( 38 - 38) =     13.31306  eV     1   --> A''            
     e( 39 - 39) =     13.84527  eV     1   --> A'             
     e( 40 - 40) =     14.12388  eV     1   --> A'             

 **************************************************************************

 **************************************************************************

                    xk=(  -0.36000,  -0.20785,   0.00000  )

     Band symmetry, C_s (m)     point group:

     e(  1 -  1) =    -69.75949  eV     1   --> A'             
     e(  2 -  2) =    -69.16021  eV     1   --> A'             
     e(  3 -  3) =    -69.15972  eV     1   --> A'             
     e(  4 -  4) =    -36.51045  eV     1   --> A'             
     e(  5 -  5) =    -36.50709  eV     1   --> A''            
     e(  6 -  6) =    -36.50653  eV     1   --> A'             
     e(  7 -  7) =    -35.91375  eV     1   --> A''            
     e(  8 -  8) =    -35.91258  eV     1   --> A'             
     e(  9 -  9) =    -35.91137  eV     1   --> A'             
     e( 10 - 10) =    -35.90932  eV     1   --> A''            
     e( 11 - 11) =    -35.90759  eV     1   --> A'             
     e( 12 - 12) =    -35.90709  eV     1   --> A'             
     e( 13 - 13) =    -14.73187  eV     1   --> A'             
     e( 14 - 14) =    -14.72753  eV     1   --> A''            
     e( 15 - 15) =    -14.72598  eV     1   --> A'             
     e( 16 - 16) =    -14.72208  eV     1   --> A''            
     e( 17 - 17) =    -14.71504  eV     1   --> A'             
     e( 18 - 18) =    -14.71344  eV     1   --> A'             
     e( 19 - 19) =    -14.69533  eV     1   --> A'             
     e( 20 - 20) =    -14.69436  eV     1   --> A''            
     e( 21 - 21) =    -14.69101  eV     1   --> A'             
     e( 22 - 22) =    -14.68526  eV     1   --> A''            
     e( 23 - 23) =     -3.41728  eV     1   --> A'             
     e( 24 - 24) =     -2.91826  eV     1   --> A'             
     e( 25 - 25) =      3.23881  eV     1   --> A'             
     e( 26 - 26) =      3.69483  eV     1   --> A'             
     e( 27 - 27) =      4.10789  eV     1   --> A'             
     e( 28 - 28) =      5.38325  eV     1   --> A''            
     e( 29 - 29) =      6.04301  eV     1   --> A'             
     e( 30 - 30) =      6.80135  eV     1   --> A''            
     e( 31 - 31) =      7.91141  eV     1   --> A'             
     e( 32 - 32) =      9.06770  eV     1   --> A'             
     e( 33 - 33) =      9.78306  eV     1   --> A'             
     e( 34 - 34) =     10.32396  eV     1   --> A''            
     e( 35 - 35) =     11.46384  eV     1   --> A'             
     e( 36 - 36) =     12.13460  eV     1   --> A'             
     e( 37 - 37) =     13.07213  eV     1   --> A'             
     e( 38 - 38) =     13.18913  eV     1   --> A''            
     e( 39 - 39) =     13.90431  eV     1   --> A'             
     e( 40 - 40) =     14.12046  eV     1   --> A'             

 **************************************************************************

 **************************************************************************

                    xk=(  -0.35000,  -0.20207,   0.00000  )

     Band symmetry, C_s (m)     point group:

     e(  1 -  1) =    -69.75949  eV     1   --> A'             
     e(  2 -  2) =    -69.16022  eV     1   --> A'             
     e(  3 -  3) =    -69.15971  eV     1   --> A'             
     e(  4 -  4) =    -36.51045  eV     1   --> A'             
     e(  5 -  5) =    -36.50708  eV     1   --> A''            
     e(  6 -  6) =    -36.50652  eV     1   --> A'             
     e(  7 -  7) =    -35.91372  eV     1   --> A''            
     e(  8 -  8) =    -35.91254  eV     1   --> A'             
     e(  9 -  9) =    -35.91133  eV     1   --> A'             
     e( 10 - 10) =    -35.90933  eV     1   --> A''            
     e( 11 - 11) =    -35.90765  eV     1   --> A'             
     e( 12 - 12) =    -35.90710  eV     1   --> A'             
     e( 13 - 13) =    -14.73176  eV     1   --> A'             
     e( 14 - 14) =    -14.72754  eV     1   --> A''            
     e( 15 - 15) =    -14.72598  eV     1   --> A'             
     e( 16 - 16) =    -14.72220  eV     1   --> A''            
     e( 17 - 17) =    -14.71509  eV     1   --> A'             
     e( 18 - 18) =    -14.71353  eV     1   --> A'             
     e( 19 - 19) =    -14.69546  eV     1   --> A'             
     e( 20 - 20) =    -14.69447  eV     1   --> A''            
     e( 21 - 21) =    -14.69089  eV     1   --> A'             
     e( 22 - 22) =    -14.68535  eV     1   --> A''            
     e( 23 - 23) =     -3.43979  eV     1   --> A'             
     e( 24 - 24) =     -2.92009  eV     1   --> A'             
     e( 25 - 25) =      3.29103  eV     1   --> A'             
     e( 26 - 26) =      3.64997  eV     1   --> A'             
     e( 27 - 27) =      4.15669  eV     1   --> A'             
     e( 28 - 28) =      5.40482  eV     1   --> A''            
     e( 29 - 29) =      6.11666  eV     1   --> A'             
     e( 30 - 30) =      6.81663  eV     1   --> A''            
     e( 31 - 31) =      7.94472  eV     1   --> A'             
     e( 32 - 32) =      9.07866  eV     1   --> A'             
     e( 33 - 33) =      9.80784  eV     1   --> A'             
     e( 34 - 34) =     10.34314  eV     1   --> A''            
     e( 35 - 35) =     11.40782  eV     1   --> A'             
     e( 36 - 36) =     12.10342  eV     1   --> A'             
     e( 37 - 37) =     12.93453  eV     1   --> A'             
     e( 38 - 38) =     13.06682  eV     1   --> A''            
     e( 39 - 39) =     13.91216  eV     1   --> A'             
     e( 40 - 40) =     14.13847  eV     1   --> A'             

 **************************************************************************

 **************************************************************************

                    xk=(  -0.34000,  -0.19630,   0.00000  )

     Band symmetry, C_s (m)     point group:

     e(  1 -  1) =    -69.75950  eV     1   --> A'             
     e(  2 -  2) =    -69.16024  eV     1   --> A'             
     e(  3 -  3) =    -69.15971  eV     1   --> A'             
     e(  4 -  4) =    -36.51078  eV     1   --> A'             
     e(  5 -  5) =    -36.50731  eV     1   --> A''            
     e(  6 -  6) =    -36.50629  eV     1   --> A'             
     e(  7 -  7) =    -35.91411  eV     1   --> A''            
     e(  8 -  8) =    -35.91231  eV     1   --> A'             
     e(  9 -  9) =    -35.91142  eV     1   --> A'             
     e( 10 - 10) =    -35.90938  eV     1   --> A''            
     e( 11 - 11) =    -35.90785  eV     1   --> A'             
     e( 12 - 12) =    -35.90724  eV     1   --> A'             
     e( 13 - 13) =    -14.73165  eV     1   --> A'             
     e( 14 - 14) =    -14.72755  eV     1   --> A''            
     e( 15 - 15) =    -14.72597  eV     1   --> A'             
     e( 16 - 16) =    -14.72234  eV     1   --> A''            
     e( 17 - 17) =    -14.71514  eV     1   --> A'             
     e( 18 - 18) =    -14.71363  eV     1   --> A'             
     e( 19 - 19) =    -14.69557  eV     1   --> A'             
     e( 20 - 20) =    -14.69459  eV     1   --> A''            
     e( 21 - 21) =    -14.69078  eV     1   --> A'             
     e( 22 - 22) =    -14.68545  eV     1   --> A''            
     e( 23 - 23) =     -3.46263  eV     1   --> A'             
     e( 24 - 24) =     -2.92257  eV     1   --> A'             
     e( 25 - 25) =      3.34169  eV     1   --> A'             
     e( 26 - 26) =      3.60966  eV     1   --> A'             
     e( 27 - 27) =      4.20901  eV     1   --> A'             
     e( 28 - 28) =      5.42765  eV     1   --> A''            
     e( 29 - 29) =      6.19052  eV     1   --> A'             
     e( 30 - 30) =      6.83265  eV     1   --> A''            
     e( 31 - 31) =      7.98059  eV     1   --> A'             
     e( 32 - 32) =      9.08975  eV     1   --> A'             
     e( 33 - 33) =      9.83429  eV     1   --> A'             
     e( 34 - 34) =     10.36332  eV     1   --> A''            
     e( 35 - 35) =     11.35350  eV     1   --> A'             
     e( 36 - 36) =     12.06980  eV     1   --> A'             
     e( 37 - 37) =     12.79964  eV     1   --> A'             
     e( 38 - 38) =     12.94631  eV     1   --> A''            
     e( 39 - 39) =     13.85290  eV     1   --> A'             
     e( 40 - 40) =     14.19783  eV     1   --> A'             

 **************************************************************************

 **************************************************************************

                    xk=(  -0.33000,  -0.19053,   0.00000  )

     Band symmetry, C_s (m)     point group:

     e(  1 -  1) =    -69.75951  eV     1   --> A'             
     e(  2 -  2) =    -69.16025  eV     1   --> A'             
     e(  3 -  3) =    -69.15971  eV     1   --> A'             
     e(  4 -  4) =    -36.51073  eV     1   --> A'             
     e(  5 -  5) =    -36.50738  eV     1   --> A''            
     e(  6 -  6) =    -36.50662  eV     1   --> A'             
     e(  7 -  7) =    -35.91421  eV     1   --> A''            
     e(  8 -  8) =    -35.91260  eV     1   --> A'             
     e(  9 -  9) =    -35.91177  eV     1   --> A'             
     e( 10 - 10) =    -35.90942  eV     1   --> A''            
     e( 11 - 11) =    -35.90798  eV     1   --> A'             
     e( 12 - 12) =    -35.90702  eV     1   --> A'             
     e( 13 - 13) =    -14.73153  eV     1   --> A'             
     e( 14 - 14) =    -14.72755  eV     1   --> A''            
     e( 15 - 15) =    -14.72598  eV     1   --> A'             
     e( 16 - 16) =    -14.72248  eV     1   --> A''            
     e( 17 - 17) =    -14.71518  eV     1   --> A'             
     e( 18 - 18) =    -14.71373  eV     1   --> A'             
     e( 19 - 19) =    -14.69572  eV     1   --> A'             
     e( 20 - 20) =    -14.69472  eV     1   --> A''            
     e( 21 - 21) =    -14.69066  eV     1   --> A'             
     e( 22 - 22) =    -14.68556  eV     1   --> A''            
     e( 23 - 23) =     -3.48570  eV     1   --> A'             
     e( 24 - 24) =     -2.92567  eV     1   --> A'             
     e( 25 - 25) =      3.38303  eV     1   --> A'             
     e( 26 - 26) =      3.58300  eV     1   --> A'             
     e( 27 - 27) =      4.26452  eV     1   --> A'             
     e( 28 - 28) =      5.45192  eV     1   --> A''            
     e( 29 - 29) =      6.26399  eV     1   --> A'             
     e( 30 - 30) =      6.84934  eV     1   --> A''            
     e( 31 - 31) =      8.01881  eV     1   --> A'             
     e( 32 - 32) =      9.10032  eV     1   --> A'             
     e( 33 - 33) =      9.86197  eV     1   --> A'             
     e( 34 - 34) =     10.38457  eV     1   --> A''            
     e( 35 - 35) =     11.30103  eV     1   --> A'             
     e( 36 - 36) =     12.03221  eV     1   --> A'             
     e( 37 - 37) =     12.67022  eV     1   --> A'             
     e( 38 - 38) =     12.82785  eV     1   --> A''            
     e( 39 - 39) =     13.75587  eV     1   --> A'             
     e( 40 - 40) =     14.27785  eV     1   --> A'             

 **************************************************************************

 **************************************************************************

                    xk=(  -0.32000,  -0.18475,   0.00000  )

     Band symmetry, C_s (m)     point group:

     e(  1 -  1) =    -69.75952  eV     1   --> A'             
     e(  2 -  2) =    -69.16028  eV     1   --> A'             
     e(  3 -  3) =    -69.15971  eV     1   --> A'             
     e(  4 -  4) =    -36.51084  eV     1   --> A'             
     e(  5 -  5) =    -36.50757  eV     1   --> A''            
     e(  6 -  6) =    -36.50684  eV     1   --> A'             
     e(  7 -  7) =    -35.91439  eV     1   --> A''            
     e(  8 -  8) =    -35.91283  eV     1   --> A'             
     e(  9 -  9) =    -35.91197  eV     1   --> A'             
     e( 10 - 10) =    -35.90963  eV     1   --> A''            
     e( 11 - 11) =    -35.90803  eV     1   --> A'             
     e( 12 - 12) =    -35.90719  eV     1   --> A'             
     e( 13 - 13) =    -14.73140  eV     1   --> A'             
     e( 14 - 14) =    -14.72758  eV     1   --> A''            
     e( 15 - 15) =    -14.72600  eV     1   --> A'             
     e( 16 - 16) =    -14.72262  eV     1   --> A''            
     e( 17 - 17) =    -14.71524  eV     1   --> A'             
     e( 18 - 18) =    -14.71384  eV     1   --> A'             
     e( 19 - 19) =    -14.69585  eV     1   --> A'             
     e( 20 - 20) =    -14.69486  eV     1   --> A''            
     e( 21 - 21) =    -14.69054  eV     1   --> A'             
     e( 22 - 22) =    -14.68566  eV     1   --> A''            
     e( 23 - 23) =     -3.50894  eV     1   --> A'             
     e( 24 - 24) =     -2.92935  eV     1   --> A'             
     e( 25 - 25) =      3.39899  eV     1   --> A'             
     e( 26 - 26) =      3.58618  eV     1   --> A'             
     e( 27 - 27) =      4.32279  eV     1   --> A'             
     e( 28 - 28) =      5.47746  eV     1   --> A''            
     e( 29 - 29) =      6.33674  eV     1   --> A'             
     e( 30 - 30) =      6.86662  eV     1   --> A''            
     e( 31 - 31) =      8.05921  eV     1   --> A'             
     e( 32 - 32) =      9.11028  eV     1   --> A'             
     e( 33 - 33) =      9.89096  eV     1   --> A'             
     e( 34 - 34) =     10.40685  eV     1   --> A''            
     e( 35 - 35) =     11.25077  eV     1   --> A'             
     e( 36 - 36) =     11.98869  eV     1   --> A'             
     e( 37 - 37) =     12.54922  eV     1   --> A'             
     e( 38 - 38) =     12.71160  eV     1   --> A''            
     e( 39 - 39) =     13.64169  eV     1   --> A'             
     e( 40 - 40) =     14.36471  eV     1   --> A'             

 **************************************************************************

 **************************************************************************

                    xk=(  -0.31000,  -0.17898,   0.00000  )

     Band symmetry, C_s (m)     point group:

     e(  1 -  1) =    -69.75951  eV     1   --> A'             
     e(  2 -  2) =    -69.16026  eV     1   --> A'             
     e(  3 -  3) =    -69.15970  eV     1   --> A'             
     e(  4 -  4) =    -36.51056  eV     1   --> A'             
     e(  5 -  5) =    -36.50747  eV     1   --> A''            
     e(  6 -  6) =    -36.50651  eV     1   --> A'             
     e(  7 -  7) =    -35.91424  eV     1   --> A''            
     e(  8 -  8) =    -35.91274  eV     1   --> A'             
     e(  9 -  9) =    -35.91162  eV     1   --> A'             
     e( 10 - 10) =    -35.90957  eV     1   --> A''            
     e( 11 - 11) =    -35.90766  eV     1   --> A'             
     e( 12 - 12) =    -35.90682  eV     1   --> A'             
     e( 13 - 13) =    -14.73126  eV     1   --> A'             
     e( 14 - 14) =    -14.72758  eV     1   --> A''            
     e( 15 - 15) =    -14.72598  eV     1   --> A'             
     e( 16 - 16) =    -14.72274  eV     1   --> A''            
     e( 17 - 17) =    -14.71529  eV     1   --> A'             
     e( 18 - 18) =    -14.71394  eV     1   --> A'             
     e( 19 - 19) =    -14.69597  eV     1   --> A'             
     e( 20 - 20) =    -14.69498  eV     1   --> A''            
     e( 21 - 21) =    -14.69041  eV     1   --> A'             
     e( 22 - 22) =    -14.68576  eV     1   --> A''            
     e( 23 - 23) =     -3.53212  eV     1   --> A'             
     e( 24 - 24) =     -2.93354  eV     1   --> A'             
     e( 25 - 25) =      3.38322  eV     1   --> A'             
     e( 26 - 26) =      3.62593  eV     1   --> A'             
     e( 27 - 27) =      4.38408  eV     1   --> A'             
     e( 28 - 28) =      5.50433  eV     1   --> A''            
     e( 29 - 29) =      6.40864  eV     1   --> A'             
     e( 30 - 30) =      6.88447  eV     1   --> A''            
     e( 31 - 31) =      8.10304  eV     1   --> A'             
     e( 32 - 32) =      9.11966  eV     1   --> A'             
     e( 33 - 33) =      9.92125  eV     1   --> A'             
     e( 34 - 34) =     10.43031  eV     1   --> A''            
     e( 35 - 35) =     11.20375  eV     1   --> A'             
     e( 36 - 36) =     11.93573  eV     1   --> A'             
     e( 37 - 37) =     12.44095  eV     1   --> A'             
     e( 38 - 38) =     12.59788  eV     1   --> A''            
     e( 39 - 39) =     13.51972  eV     1   --> A'             
     e( 40 - 40) =     14.30759  eV     1   --> A''            

 **************************************************************************

 **************************************************************************

                    xk=(  -0.30000,  -0.17321,   0.00000  )

     Band symmetry, C_s (m)     point group:

     e(  1 -  1) =    -69.75952  eV     1   --> A'             
     e(  2 -  2) =    -69.16029  eV     1   --> A'             
     e(  3 -  3) =    -69.15971  eV     1   --> A'             
     e(  4 -  4) =    -36.51108  eV     1   --> A'             
     e(  5 -  5) =    -36.50748  eV     1   --> A''            
     e(  6 -  6) =    -36.50669  eV     1   --> A'             
     e(  7 -  7) =    -35.91422  eV     1   --> A''            
     e(  8 -  8) =    -35.91313  eV     1   --> A'             
     e(  9 -  9) =    -35.91186  eV     1   --> A'             
     e( 10 - 10) =    -35.90961  eV     1   --> A''            
     e( 11 - 11) =    -35.90779  eV     1   --> A'             
     e( 12 - 12) =    -35.90742  eV     1   --> A'             
     e( 13 - 13) =    -14.73114  eV     1   --> A'             
     e( 14 - 14) =    -14.72759  eV     1   --> A''            
     e( 15 - 15) =    -14.72600  eV     1   --> A'             
     e( 16 - 16) =    -14.72289  eV     1   --> A''            
     e( 17 - 17) =    -14.71537  eV     1   --> A'             
     e( 18 - 18) =    -14.71406  eV     1   --> A'             
     e( 19 - 19) =    -14.69610  eV     1   --> A'             
     e( 20 - 20) =    -14.69512  eV     1   --> A''            
     e( 21 - 21) =    -14.69030  eV     1   --> A'             
     e( 22 - 22) =    -14.68586  eV     1   --> A''            
     e( 23 - 23) =     -3.55530  eV     1   --> A'             
     e( 24 - 24) =     -2.93828  eV     1   --> A'             
     e( 25 - 25) =      3.34992  eV     1   --> A'             
     e( 26 - 26) =      3.68667  eV     1   --> A'             
     e( 27 - 27) =      4.44784  eV     1   --> A'             
     e( 28 - 28) =      5.53241  eV     1   --> A''            
     e( 29 - 29) =      6.47933  eV     1   --> A'             
     e( 30 - 30) =      6.90274  eV     1   --> A''            
     e( 31 - 31) =      8.14826  eV     1   --> A'             
     e( 32 - 32) =      9.12740  eV     1   --> A'             
     e( 33 - 33) =      9.95243  eV     1   --> A'             
     e( 34 - 34) =     10.45458  eV     1   --> A''            
     e( 35 - 35) =     11.15892  eV     1   --> A'             
     e( 36 - 36) =     11.86836  eV     1   --> A'             
     e( 37 - 37) =     12.34900  eV     1   --> A'             
     e( 38 - 38) =     12.48671  eV     1   --> A''            
     e( 39 - 39) =     13.39455  eV     1   --> A'             
     e( 40 - 40) =     14.19570  eV     1   --> A''            

 **************************************************************************

 **************************************************************************

                    xk=(  -0.29000,  -0.16743,   0.00000  )

     Band symmetry, C_s (m)     point group:

     e(  1 -  1) =    -69.75952  eV     1   --> A'             
     e(  2 -  2) =    -69.16029  eV     1   --> A'             
     e(  3 -  3) =    -69.15969  eV     1   --> A'             
     e(  4 -  4) =    -36.51083  eV     1   --> A'             
     e(  5 -  5) =    -36.50747  eV     1   --> A''            
     e(  6 -  6) =    -36.50676  eV     1   --> A'             
     e(  7 -  7) =    -35.91417  eV     1   --> A''            
     e(  8 -  8) =    -35.91307  eV     1   --> A'             
     e(  9 -  9) =    -35.91166  eV     1   --> A'             
     e( 10 - 10) =    -35.90964  eV     1   --> A''            
     e( 11 - 11) =    -35.90791  eV     1   --> A'             
     e( 12 - 12) =    -35.90721  eV     1   --> A'             
     e( 13 - 13) =    -14.73099  eV     1   --> A'             
     e( 14 - 14) =    -14.72760  eV     1   --> A''            
     e( 15 - 15) =    -14.72600  eV     1   --> A'             
     e( 16 - 16) =    -14.72303  eV     1   --> A''            
     e( 17 - 17) =    -14.71543  eV     1   --> A'             
     e( 18 - 18) =    -14.71417  eV     1   --> A'             
     e( 19 - 19) =    -14.69622  eV     1   --> A'             
     e( 20 - 20) =    -14.69525  eV     1   --> A''            
     e( 21 - 21) =    -14.69018  eV     1   --> A'             
     e( 22 - 22) =    -14.68597  eV     1   --> A''            
     e( 23 - 23) =     -3.57835  eV     1   --> A'             
     e( 24 - 24) =     -2.94346  eV     1   --> A'             
     e( 25 - 25) =      3.31100  eV     1   --> A'             
     e( 26 - 26) =      3.75789  eV     1   --> A'             
     e( 27 - 27) =      4.51417  eV     1   --> A'             
     e( 28 - 28) =      5.56170  eV     1   --> A''            
     e( 29 - 29) =      6.54867  eV     1   --> A'             
     e( 30 - 30) =      6.92135  eV     1   --> A''            
     e( 31 - 31) =      8.19649  eV     1   --> A'             
     e( 32 - 32) =      9.13369  eV     1   --> A'             
     e( 33 - 33) =      9.98454  eV     1   --> A'             
     e( 34 - 34) =     10.47963  eV     1   --> A''            
     e( 35 - 35) =     11.11837  eV     1   --> A'             
     e( 36 - 36) =     11.78549  eV     1   --> A'             
     e( 37 - 37) =     12.27662  eV     1   --> A'             
     e( 38 - 38) =     12.37842  eV     1   --> A''            
     e( 39 - 39) =     13.26904  eV     1   --> A'             
     e( 40 - 40) =     14.08400  eV     1   --> A''            

 **************************************************************************

 **************************************************************************

                    xk=(  -0.28000,  -0.16166,   0.00000  )

     Band symmetry, C_s (m)     point group:

     e(  1 -  1) =    -69.75953  eV     1   --> A'             
     e(  2 -  2) =    -69.16031  eV     1   --> A'             
     e(  3 -  3) =    -69.15970  eV     1   --> A'             
     e(  4 -  4) =    -36.51086  eV     1   --> A'             
     e(  5 -  5) =    -36.50759  eV     1   --> A''            
     e(  6 -  6) =    -36.50697  eV     1   --> A'             
     e(  7 -  7) =    -35.91425  eV     1   --> A''            
     e(  8 -  8) =    -35.91333  eV     1   --> A'             
     e(  9 -  9) =    -35.91172  eV     1   --> A'             
     e( 10 - 10) =    -35.90979  eV     1   --> A''            
     e( 11 - 11) =    -35.90798  eV     1   --> A'             
     e( 12 - 12) =    -35.90729  eV     1   --> A'             
     e( 13 - 13) =    -14.73084  eV     1   --> A'             
     e( 14 - 14) =    -14.72761  eV     1   --> A''            
     e( 15 - 15) =    -14.72600  eV     1   --> A'             
     e( 16 - 16) =    -14.72320  eV     1   --> A''            
     e( 17 - 17) =    -14.71550  eV     1   --> A'             
     e( 18 - 18) =    -14.71429  eV     1   --> A'             
     e( 19 - 19) =    -14.69632  eV     1   --> A'             
     e( 20 - 20) =    -14.69541  eV     1   --> A''            
     e( 21 - 21) =    -14.69007  eV     1   --> A'             
     e( 22 - 22) =    -14.68607  eV     1   --> A''            
     e( 23 - 23) =     -3.60122  eV     1   --> A'             
     e( 24 - 24) =     -2.94908  eV     1   --> A'             
     e( 25 - 25) =      3.26989  eV     1   --> A'             
     e( 26 - 26) =      3.83519  eV     1   --> A'             
     e( 27 - 27) =      4.58287  eV     1   --> A'             
     e( 28 - 28) =      5.59211  eV     1   --> A''            
     e( 29 - 29) =      6.61636  eV     1   --> A'             
     e( 30 - 30) =      6.94019  eV     1   --> A''            
     e( 31 - 31) =      8.24721  eV     1   --> A'             
     e( 32 - 32) =      9.13768  eV     1   --> A'             
     e( 33 - 33) =     10.01710  eV     1   --> A'             
     e( 34 - 34) =     10.50520  eV     1   --> A''            
     e( 35 - 35) =     11.08177  eV     1   --> A'             
     e( 36 - 36) =     11.68700  eV     1   --> A'             
     e( 37 - 37) =     12.22265  eV     1   --> A'             
     e( 38 - 38) =     12.27319  eV     1   --> A''            
     e( 39 - 39) =     13.14515  eV     1   --> A'             
     e( 40 - 40) =     13.97292  eV     1   --> A''            

 **************************************************************************

 **************************************************************************

                    xk=(  -0.27000,  -0.15588,   0.00000  )

     Band symmetry, C_s (m)     point group:

     e(  1 -  1) =    -69.75953  eV     1   --> A'             
     e(  2 -  2) =    -69.16033  eV     1   --> A'             
     e(  3 -  3) =    -69.15968  eV     1   --> A'             
     e(  4 -  4) =    -36.51076  eV     1   --> A'             
     e(  5 -  5) =    -36.50783  eV     1   --> A''            
     e(  6 -  6) =    -36.50684  eV     1   --> A'             
     e(  7 -  7) =    -35.91421  eV     1   --> A''            
     e(  8 -  8) =    -35.91322  eV     1   --> A'             
     e(  9 -  9) =    -35.91147  eV     1   --> A'             
     e( 10 - 10) =    -35.91031  eV     1   --> A''            
     e( 11 - 11) =    -35.90795  eV     1   --> A'             
     e( 12 - 12) =    -35.90722  eV     1   --> A'             
     e( 13 - 13) =    -14.73068  eV     1   --> A'             
     e( 14 - 14) =    -14.72762  eV     1   --> A''            
     e( 15 - 15) =    -14.72601  eV     1   --> A'             
     e( 16 - 16) =    -14.72337  eV     1   --> A''            
     e( 17 - 17) =    -14.71559  eV     1   --> A'             
     e( 18 - 18) =    -14.71440  eV     1   --> A'             
     e( 19 - 19) =    -14.69641  eV     1   --> A'             
     e( 20 - 20) =    -14.69555  eV     1   --> A''            
     e( 21 - 21) =    -14.68996  eV     1   --> A'             
     e( 22 - 22) =    -14.68619  eV     1   --> A''            
     e( 23 - 23) =     -3.62380  eV     1   --> A'             
     e( 24 - 24) =     -2.95506  eV     1   --> A'             
     e( 25 - 25) =      3.22835  eV     1   --> A'             
     e( 26 - 26) =      3.91763  eV     1   --> A'             
     e( 27 - 27) =      4.65394  eV     1   --> A'             
     e( 28 - 28) =      5.62361  eV     1   --> A''            
     e( 29 - 29) =      6.68217  eV     1   --> A'             
     e( 30 - 30) =      6.95912  eV     1   --> A''            
     e( 31 - 31) =      8.29982  eV     1   --> A'             
     e( 32 - 32) =      9.13903  eV     1   --> A'             
     e( 33 - 33) =     10.05006  eV     1   --> A'             
     e( 34 - 34) =     10.53129  eV     1   --> A''            
     e( 35 - 35) =     11.05035  eV     1   --> A'             
     e( 36 - 36) =     11.57775  eV     1   --> A'             
     e( 37 - 37) =     12.17128  eV     1   --> A''            
     e( 38 - 38) =     12.18344  eV     1   --> A'             
     e( 39 - 39) =     13.02440  eV     1   --> A'             
     e( 40 - 40) =     13.86284  eV     1   --> A''            

 **************************************************************************

 **************************************************************************

                    xk=(  -0.26000,  -0.15011,   0.00000  )

     Band symmetry, C_s (m)     point group:

     e(  1 -  1) =    -69.75955  eV     1   --> A'             
     e(  2 -  2) =    -69.16035  eV     1   --> A'             
     e(  3 -  3) =    -69.15970  eV     1   --> A'             
     e(  4 -  4) =    -36.51084  eV     1   --> A'             
     e(  5 -  5) =    -36.50803  eV     1   --> A''            
     e(  6 -  6) =    -36.50747  eV     1   --> A'             
     e(  7 -  7) =    -35.91446  eV     1   --> A''            
     e(  8 -  8) =    -35.91379  eV     1   --> A'             
     e(  9 -  9) =    -35.91189  eV     1   --> A'             
     e( 10 - 10) =    -35.91045  eV     1   --> A''            
     e( 11 - 11) =    -35.90824  eV     1   --> A'             
     e( 12 - 12) =    -35.90735  eV     1   --> A'             
     e( 13 - 13) =    -14.73055  eV     1   --> A'             
     e( 14 - 14) =    -14.72764  eV     1   --> A''            
     e( 15 - 15) =    -14.72603  eV     1   --> A'             
     e( 16 - 16) =    -14.72354  eV     1   --> A''            
     e( 17 - 17) =    -14.71568  eV     1   --> A'             
     e( 18 - 18) =    -14.71453  eV     1   --> A'             
     e( 19 - 19) =    -14.69655  eV     1   --> A'             
     e( 20 - 20) =    -14.69572  eV     1   --> A''            
     e( 21 - 21) =    -14.68985  eV     1   --> A'             
     e( 22 - 22) =    -14.68630  eV     1   --> A''            
     e( 23 - 23) =     -3.64607  eV     1   --> A'             
     e( 24 - 24) =     -2.96138  eV     1   --> A'             
     e( 25 - 25) =      3.18730  eV     1   --> A'             
     e( 26 - 26) =      4.00319  eV     1   --> A'             
     e( 27 - 27) =      4.72717  eV     1   --> A'             
     e( 28 - 28) =      5.65612  eV     1   --> A''            
     e( 29 - 29) =      6.74582  eV     1   --> A'             
     e( 30 - 30) =      6.97812  eV     1   --> A''            
     e( 31 - 31) =      8.35432  eV     1   --> A'             
     e( 32 - 32) =      9.13659  eV     1   --> A'             
     e( 33 - 33) =     10.08281  eV     1   --> A'             
     e( 34 - 34) =     10.55758  eV     1   --> A''            
     e( 35 - 35) =     11.02283  eV     1   --> A'             
     e( 36 - 36) =     11.46208  eV     1   --> A'             
     e( 37 - 37) =     12.07312  eV     1   --> A''            
     e( 38 - 38) =     12.15401  eV     1   --> A'             
     e( 39 - 39) =     12.90806  eV     1   --> A'             
     e( 40 - 40) =     13.75406  eV     1   --> A''            

 **************************************************************************

 **************************************************************************

                    xk=(  -0.25000,  -0.14434,   0.00000  )

     Band symmetry, C_s (m)     point group:

     e(  1 -  1) =    -69.75954  eV     1   --> A'             
     e(  2 -  2) =    -69.16034  eV     1   --> A'             
     e(  3 -  3) =    -69.15968  eV     1   --> A'             
     e(  4 -  4) =    -36.51080  eV     1   --> A'             
     e(  5 -  5) =    -36.50788  eV     1   --> A''            
     e(  6 -  6) =    -36.50716  eV     1   --> A'             
     e(  7 -  7) =    -35.91426  eV     1   --> A''            
     e(  8 -  8) =    -35.91348  eV     1   --> A'             
     e(  9 -  9) =    -35.91173  eV     1   --> A'             
     e( 10 - 10) =    -35.91035  eV     1   --> A''            
     e( 11 - 11) =    -35.90811  eV     1   --> A'             
     e( 12 - 12) =    -35.90725  eV     1   --> A'             
     e( 13 - 13) =    -14.73038  eV     1   --> A'             
     e( 14 - 14) =    -14.72765  eV     1   --> A''            
     e( 15 - 15) =    -14.72604  eV     1   --> A'             
     e( 16 - 16) =    -14.72369  eV     1   --> A''            
     e( 17 - 17) =    -14.71576  eV     1   --> A'             
     e( 18 - 18) =    -14.71464  eV     1   --> A'             
     e( 19 - 19) =    -14.69666  eV     1   --> A'             
     e( 20 - 20) =    -14.69585  eV     1   --> A''            
     e( 21 - 21) =    -14.68972  eV     1   --> A'             
     e( 22 - 22) =    -14.68640  eV     1   --> A''            
     e( 23 - 23) =     -3.66787  eV     1   --> A'             
     e( 24 - 24) =     -2.96793  eV     1   --> A'             
     e( 25 - 25) =      3.14741  eV     1   --> A'             
     e( 26 - 26) =      4.09235  eV     1   --> A'             
     e( 27 - 27) =      4.80285  eV     1   --> A'             
     e( 28 - 28) =      5.68973  eV     1   --> A''            
     e( 29 - 29) =      6.80725  eV     1   --> A'             
     e( 30 - 30) =      6.99705  eV     1   --> A''            
     e( 31 - 31) =      8.41159  eV     1   --> A'             
     e( 32 - 32) =      9.13034  eV     1   --> A'             
     e( 33 - 33) =     10.11526  eV     1   --> A'             
     e( 34 - 34) =     10.58414  eV     1   --> A''            
     e( 35 - 35) =     11.00044  eV     1   --> A'             
     e( 36 - 36) =     11.34564  eV     1   --> A'             
     e( 37 - 37) =     11.97901  eV     1   --> A''            
     e( 38 - 38) =     12.13114  eV     1   --> A'             
     e( 39 - 39) =     12.79761  eV     1   --> A'             
     e( 40 - 40) =     13.64707  eV     1   --> A''            

 **************************************************************************

 **************************************************************************

                    xk=(  -0.24000,  -0.13856,   0.00000  )

     Band symmetry, C_s (m)     point group:

     e(  1 -  1) =    -69.75954  eV     1   --> A'             
     e(  2 -  2) =    -69.16035  eV     1   --> A'             
     e(  3 -  3) =    -69.15967  eV     1   --> A'             
     e(  4 -  4) =    -36.51081  eV     1   --> A'             
     e(  5 -  5) =    -36.50787  eV     1   --> A''            
     e(  6 -  6) =    -36.50718  eV     1   --> A'             
     e(  7 -  7) =    -35.91422  eV     1   --> A''            
     e(  8 -  8) =    -35.91347  eV     1   --> A'             
     e(  9 -  9) =    -35.91170  eV     1   --> A'             
     e( 10 - 10) =    -35.91037  eV     1   --> A''            
     e( 11 - 11) =    -35.90818  eV     1   --> A'             
     e( 12 - 12) =    -35.90728  eV     1   --> A'             
     e( 13 - 13) =    -14.73023  eV     1   --> A'             
     e( 14 - 14) =    -14.72765  eV     1   --> A''            
     e( 15 - 15) =    -14.72605  eV     1   --> A'             
     e( 16 - 16) =    -14.72386  eV     1   --> A''            
     e( 17 - 17) =    -14.71584  eV     1   --> A'             
     e( 18 - 18) =    -14.71475  eV     1   --> A'             
     e( 19 - 19) =    -14.69677  eV     1   --> A'             
     e( 20 - 20) =    -14.69599  eV     1   --> A''            
     e( 21 - 21) =    -14.68960  eV     1   --> A'             
     e( 22 - 22) =    -14.68651  eV     1   --> A''            
     e( 23 - 23) =     -3.68925  eV     1   --> A'             
     e( 24 - 24) =     -2.97469  eV     1   --> A'             
     e( 25 - 25) =      3.10854  eV     1   --> A'             
     e( 26 - 26) =      4.18440  eV     1   --> A'             
     e( 27 - 27) =      4.88036  eV     1   --> A'             
     e( 28 - 28) =      5.72426  eV     1   --> A''            
     e( 29 - 29) =      6.86611  eV     1   --> A'             
     e( 30 - 30) =      7.01573  eV     1   --> A''            
     e( 31 - 31) =      8.47022  eV     1   --> A'             
     e( 32 - 32) =      9.11906  eV     1   --> A'             
     e( 33 - 33) =     10.14637  eV     1   --> A'             
     e( 34 - 34) =     10.61029  eV     1   --> A''            
     e( 35 - 35) =     10.97998  eV     1   --> A'             
     e( 36 - 36) =     11.23340  eV     1   --> A'             
     e( 37 - 37) =     11.88932  eV     1   --> A''            
     e( 38 - 38) =     12.11152  eV     1   --> A'             
     e( 39 - 39) =     12.69453  eV     1   --> A'             
     e( 40 - 40) =     13.54199  eV     1   --> A''            

 **************************************************************************

 **************************************************************************

                    xk=(  -0.23000,  -0.13279,   0.00000  )

     Band symmetry, C_s (m)     point group:

     e(  1 -  1) =    -69.75955  eV     1   --> A'             
     e(  2 -  2) =    -69.16036  eV     1   --> A'             
     e(  3 -  3) =    -69.15968  eV     1   --> A'             
     e(  4 -  4) =    -36.51098  eV     1   --> A'             
     e(  5 -  5) =    -36.50799  eV     1   --> A''            
[...]
     e(  3 -  3) =    -69.15972  eV     1   --> A              
     e(  4 -  4) =    -36.51192  eV     1   --> B              
     e(  5 -  5) =    -36.50780  eV     1   --> B              
     e(  6 -  6) =    -36.50751  eV     1   --> A              
     e(  7 -  7) =    -35.91422  eV     1   --> B              
     e(  8 -  8) =    -35.91406  eV     1   --> A              
     e(  9 -  9) =    -35.91213  eV     1   --> B              
     e( 10 - 10) =    -35.91024  eV     1   --> A              
     e( 11 - 11) =    -35.90979  eV     1   --> B              
     e( 12 - 12) =    -35.90740  eV     1   --> A              
     e( 13 - 13) =    -14.72899  eV     1   --> A              
     e( 14 - 14) =    -14.72863  eV     1   --> B              
     e( 15 - 15) =    -14.72528  eV     1   --> B              
     e( 16 - 16) =    -14.72511  eV     1   --> A              
     e( 17 - 17) =    -14.71760  eV     1   --> B              
     e( 18 - 18) =    -14.71553  eV     1   --> A              
     e( 19 - 19) =    -14.69801  eV     1   --> B              
     e( 20 - 20) =    -14.69790  eV     1   --> A              
     e( 21 - 21) =    -14.68818  eV     1   --> A              
     e( 22 - 22) =    -14.68791  eV     1   --> B              
     e( 23 - 23) =     -3.69152  eV     1   --> A              
     e( 24 - 24) =     -3.42713  eV     1   --> B              
     e( 25 - 25) =      4.01293  eV     1   --> B              
     e( 26 - 26) =      4.32319  eV     1   --> A              
     e( 27 - 27) =      6.48702  eV     1   --> A              
     e( 28 - 28) =      6.53443  eV     1   --> B              
     e( 29 - 29) =      6.72927  eV     1   --> B              
     e( 30 - 30) =      6.74485  eV     1   --> A              
     e( 31 - 31) =      8.81344  eV     1   --> A              
     e( 32 - 32) =      9.04074  eV     1   --> B              
     e( 33 - 33) =      9.72929  eV     1   --> A              
     e( 34 - 34) =     10.26793  eV     1   --> B              
     e( 35 - 35) =     10.69997  eV     1   --> B              
     e( 36 - 36) =     11.15027  eV     1   --> A              
     e( 37 - 37) =     11.38345  eV     1   --> A              
     e( 38 - 38) =     11.80241  eV     1   --> B              
     e( 39 - 39) =     12.99909  eV     1   --> A              
     e( 40 - 40) =     13.35428  eV     1   --> B              

 **************************************************************************

 **************************************************************************

                    xk=(  -0.06666,   0.00000,  -0.31645  )

     Band symmetry, C_2  (2)    point group:

     e(  1 -  1) =    -69.75959  eV     1   --> A              
     e(  2 -  2) =    -69.16042  eV     1   --> B              
     e(  3 -  3) =    -69.15971  eV     1   --> A              
     e(  4 -  4) =    -36.51150  eV     1   --> B              
     e(  5 -  5) =    -36.50788  eV     1   --> B              
     e(  6 -  6) =    -36.50750  eV     1   --> A              
     e(  7 -  7) =    -35.91430  eV     1   --> B              
     e(  8 -  8) =    -35.91409  eV     1   --> A              
     e(  9 -  9) =    -35.91171  eV     1   --> B              
     e( 10 - 10) =    -35.91029  eV     1   --> A              
     e( 11 - 11) =    -35.90971  eV     1   --> B              
     e( 12 - 12) =    -35.90702  eV     1   --> A              
     e( 13 - 13) =    -14.72894  eV     1   --> A              
     e( 14 - 14) =    -14.72868  eV     1   --> B              
     e( 15 - 15) =    -14.72526  eV     1   --> B              
     e( 16 - 16) =    -14.72513  eV     1   --> A              
     e( 17 - 17) =    -14.71763  eV     1   --> B              
     e( 18 - 18) =    -14.71557  eV     1   --> A              
     e( 19 - 20) =    -14.69805  eV     2   --> A              
     e( 19 - 20) =    -14.69805  eV     2   --> B              
     e( 21 - 21) =    -14.68813  eV     1   --> A              
     e( 22 - 22) =    -14.68792  eV     1   --> B              
     e( 23 - 23) =     -3.69834  eV     1   --> A              
     e( 24 - 24) =     -3.43266  eV     1   --> B              
     e( 25 - 25) =      4.01762  eV     1   --> B              
     e( 26 - 26) =      4.33034  eV     1   --> A              
     e( 27 - 27) =      6.56150  eV     1   --> A              
     e( 28 - 28) =      6.60556  eV     1   --> B              
     e( 29 - 29) =      6.74882  eV     1   --> B              
     e( 30 - 30) =      6.76888  eV     1   --> A              
     e( 31 - 31) =      8.72917  eV     1   --> A              
     e( 32 - 32) =      8.96406  eV     1   --> B              
     e( 33 - 33) =      9.80949  eV     1   --> A              
     e( 34 - 34) =     10.22229  eV     1   --> B              
     e( 35 - 35) =     10.76838  eV     1   --> B              
     e( 36 - 36) =     11.10584  eV     1   --> A              
     e( 37 - 37) =     11.25186  eV     1   --> A              
     e( 38 - 38) =     11.75925  eV     1   --> B              
     e( 39 - 39) =     13.12159  eV     1   --> A              
     e( 40 - 40) =     13.39584  eV     1   --> B              

 **************************************************************************

 **************************************************************************

                    xk=(  -0.05333,   0.00000,  -0.31645  )

     Band symmetry, C_2  (2)    point group:

     e(  1 -  1) =    -69.75958  eV     1   --> A              
     e(  2 -  2) =    -69.16040  eV     1   --> B              
     e(  3 -  3) =    -69.15970  eV     1   --> A              
     e(  4 -  4) =    -36.51103  eV     1   --> B              
     e(  5 -  6) =    -36.50776  eV     2   --> A              
     e(  5 -  6) =    -36.50776  eV     2   --> B              
     e(  7 -  7) =    -35.91435  eV     1   --> B              
     e(  8 -  8) =    -35.91416  eV     1   --> A              
     e(  9 -  9) =    -35.91146  eV     1   --> B              
     e( 10 - 10) =    -35.91011  eV     1   --> B              
     e( 11 - 11) =    -35.90996  eV     1   --> A              
     e( 12 - 12) =    -35.90636  eV     1   --> A              
     e( 13 - 13) =    -14.72891  eV     1   --> A              
     e( 14 - 14) =    -14.72873  eV     1   --> B              
     e( 15 - 16) =    -14.72524  eV     2   --> A              
     e( 15 - 16) =    -14.72524  eV     2   --> B              
     e( 17 - 17) =    -14.71765  eV     1   --> B              
     e( 18 - 18) =    -14.71559  eV     1   --> A              
     e( 19 - 20) =    -14.69808  eV     2   --> A              
     e( 19 - 20) =    -14.69808  eV     2   --> B              
     e( 21 - 21) =    -14.68809  eV     1   --> A              
     e( 22 - 22) =    -14.68796  eV     1   --> B              
     e( 23 - 23) =     -3.70395  eV     1   --> A              
     e( 24 - 24) =     -3.43720  eV     1   --> B              
     e( 25 - 25) =      4.02128  eV     1   --> B              
     e( 26 - 26) =      4.33576  eV     1   --> A              
     e( 27 - 27) =      6.62993  eV     1   --> A              
     e( 28 - 28) =      6.66932  eV     1   --> B              
     e( 29 - 29) =      6.76538  eV     1   --> B              
     e( 30 - 30) =      6.78807  eV     1   --> A              
     e( 31 - 31) =      8.65171  eV     1   --> A              
     e( 32 - 32) =      8.89379  eV     1   --> B              
     e( 33 - 33) =      9.89303  eV     1   --> A              
     e( 34 - 34) =     10.18570  eV     1   --> B              
     e( 35 - 35) =     10.83733  eV     1   --> B              
     e( 36 - 36) =     11.06592  eV     1   --> A              
     e( 37 - 37) =     11.13090  eV     1   --> A              
     e( 38 - 38) =     11.70778  eV     1   --> B              
     e( 39 - 39) =     13.24458  eV     1   --> A              
     e( 40 - 40) =     13.42853  eV     1   --> B              

 **************************************************************************

 **************************************************************************

                    xk=(  -0.04000,   0.00000,  -0.31645  )

     Band symmetry, C_2  (2)    point group:

     e(  1 -  1) =    -69.75958  eV     1   --> A              
     e(  2 -  2) =    -69.16040  eV     1   --> B              
     e(  3 -  3) =    -69.15971  eV     1   --> A              
     e(  4 -  4) =    -36.51075  eV     1   --> B              
     e(  5 -  6) =    -36.50788  eV     2   --> A              
     e(  5 -  6) =    -36.50788  eV     2   --> B              
     e(  7 -  7) =    -35.91456  eV     1   --> B              
     e(  8 -  8) =    -35.91437  eV     1   --> A              
     e(  9 -  9) =    -35.91128  eV     1   --> B              
     e( 10 - 10) =    -35.91017  eV     1   --> B              
     e( 11 - 11) =    -35.91005  eV     1   --> A              
     e( 12 - 12) =    -35.90595  eV     1   --> A              
     e( 13 - 13) =    -14.72888  eV     1   --> A              
     e( 14 - 14) =    -14.72877  eV     1   --> B              
     e( 15 - 16) =    -14.72523  eV     2   --> A              
     e( 15 - 16) =    -14.72523  eV     2   --> B              
     e( 17 - 17) =    -14.71767  eV     1   --> B              
     e( 18 - 18) =    -14.71562  eV     1   --> A              
     e( 19 - 20) =    -14.69810  eV     2   --> A              
     e( 19 - 20) =    -14.69810  eV     2   --> B              
     e( 21 - 22) =    -14.68806  eV     2   --> A              
     e( 21 - 22) =    -14.68806  eV     2   --> B              
     e( 23 - 23) =     -3.70833  eV     1   --> A              
     e( 24 - 24) =     -3.44074  eV     1   --> B              
     e( 25 - 25) =      4.02381  eV     1   --> B              
     e( 26 - 26) =      4.33963  eV     1   --> A              
     e( 27 - 27) =      6.68924  eV     1   --> A              
     e( 28 - 28) =      6.72203  eV     1   --> B              
     e( 29 - 29) =      6.77970  eV     1   --> B              
     e( 30 - 30) =      6.80229  eV     1   --> A              
     e( 31 - 31) =      8.58503  eV     1   --> A              
     e( 32 - 32) =      8.83366  eV     1   --> B              
     e( 33 - 33) =      9.97481  eV     1   --> A              
     e( 34 - 34) =     10.15781  eV     1   --> B              
     e( 35 - 35) =     10.90325  eV     1   --> B              
     e( 36 - 36) =     10.99688  eV     1   --> A              
     e( 37 - 37) =     11.05814  eV     1   --> A              
     e( 38 - 38) =     11.65319  eV     1   --> B              
     e( 39 - 39) =     13.36669  eV     1   --> A              
     e( 40 - 40) =     13.45100  eV     1   --> B              

 **************************************************************************

 **************************************************************************

                    xk=(  -0.02666,   0.00000,  -0.31645  )

     Band symmetry, C_2  (2)    point group:

     e(  1 -  1) =    -69.75959  eV     1   --> A              
     e(  2 -  2) =    -69.16041  eV     1   --> B              
     e(  3 -  3) =    -69.15971  eV     1   --> A              
     e(  4 -  4) =    -36.51058  eV     1   --> B              
     e(  5 -  5) =    -36.50845  eV     1   --> A              
     e(  6 -  6) =    -36.50783  eV     1   --> B              
     e(  7 -  7) =    -35.91510  eV     1   --> A              
     e(  8 -  8) =    -35.91449  eV     1   --> B              
     e(  9 -  9) =    -35.91102  eV     1   --> B              
     e( 10 - 10) =    -35.91055  eV     1   --> B              
     e( 11 - 11) =    -35.91003  eV     1   --> A              
     e( 12 - 12) =    -35.90588  eV     1   --> A              
     e( 13 - 14) =    -14.72886  eV     2   --> A              
     e( 13 - 14) =    -14.72886  eV     2   --> B              
     e( 15 - 16) =    -14.72522  eV     2   --> A              
     e( 15 - 16) =    -14.72522  eV     2   --> B              
     e( 17 - 17) =    -14.71770  eV     1   --> B              
     e( 18 - 18) =    -14.71564  eV     1   --> A              
     e( 19 - 20) =    -14.69812  eV     2   --> A              
     e( 19 - 20) =    -14.69812  eV     2   --> B              
     e( 21 - 22) =    -14.68804  eV     2   --> A              
     e( 21 - 22) =    -14.68804  eV     2   --> B              
     e( 23 - 23) =     -3.71149  eV     1   --> A              
     e( 24 - 24) =     -3.44332  eV     1   --> B              
     e( 25 - 25) =      4.02545  eV     1   --> B              
     e( 26 - 26) =      4.34220  eV     1   --> A              
     e( 27 - 27) =      6.73620  eV     1   --> A              
     e( 28 - 28) =      6.75837  eV     1   --> B              
     e( 29 - 29) =      6.79415  eV     1   --> B              
     e( 30 - 30) =      6.81138  eV     1   --> A              
     e( 31 - 31) =      8.53327  eV     1   --> A              
     e( 32 - 32) =      8.78709  eV     1   --> B              
     e( 33 - 33) =     10.04824  eV     1   --> A              
     e( 34 - 34) =     10.13845  eV     1   --> B              
     e( 35 - 35) =     10.90469  eV     1   --> A              
     e( 36 - 36) =     10.96066  eV     1   --> B              
     e( 37 - 37) =     11.03367  eV     1   --> A              
     e( 38 - 38) =     11.60251  eV     1   --> B              
     e( 39 - 39) =     13.46472  eV     1   --> B              
     e( 40 - 40) =     13.48635  eV     1   --> A              

 **************************************************************************

 **************************************************************************

                    xk=(  -0.01333,   0.00000,  -0.31645  )

     Band symmetry, C_2  (2)    point group:

     e(  1 -  1) =    -69.75956  eV     1   --> A              
     e(  2 -  2) =    -69.16039  eV     1   --> B              
     e(  3 -  3) =    -69.15968  eV     1   --> A              
     e(  4 -  4) =    -36.51036  eV     1   --> B              
     e(  5 -  5) =    -36.50787  eV     1   --> A              
     e(  6 -  6) =    -36.50758  eV     1   --> B              
     e(  7 -  7) =    -35.91443  eV     1   --> A              
     e(  8 -  8) =    -35.91426  eV     1   --> B              
     e(  9 -  9) =    -35.91064  eV     1   --> B              
     e( 10 - 10) =    -35.91012  eV     1   --> B              
     e( 11 - 11) =    -35.90976  eV     1   --> A              
     e( 12 - 12) =    -35.90576  eV     1   --> A              
     e( 13 - 14) =    -14.72883  eV     2   --> A              
     e( 13 - 14) =    -14.72883  eV     2   --> B              
     e( 15 - 16) =    -14.72519  eV     2   --> A              
     e( 15 - 16) =    -14.72519  eV     2   --> B              
     e( 17 - 17) =    -14.71771  eV     1   --> B              
     e( 18 - 18) =    -14.71563  eV     1   --> A              
     e( 19 - 20) =    -14.69810  eV     2   --> A              
     e( 19 - 20) =    -14.69810  eV     2   --> B              
     e( 21 - 22) =    -14.68801  eV     2   --> A              
     e( 21 - 22) =    -14.68801  eV     2   --> B              
     e( 23 - 23) =     -3.71332  eV     1   --> A              
     e( 24 - 24) =     -3.44480  eV     1   --> B              
     e( 25 - 25) =      4.02670  eV     1   --> B              
     e( 26 - 26) =      4.34395  eV     1   --> A              
     e( 27 - 27) =      6.76781  eV     1   --> A              
     e( 28 - 28) =      6.77527  eV     1   --> B              
     e( 29 - 29) =      6.80914  eV     1   --> B              
     e( 30 - 30) =      6.81532  eV     1   --> A              
     e( 31 - 31) =      8.50131  eV     1   --> A              
     e( 32 - 32) =      8.75771  eV     1   --> B              
     e( 33 - 33) =     10.10278  eV     1   --> A              
     e( 34 - 34) =     10.12707  eV     1   --> B              
     e( 35 - 35) =     10.83827  eV     1   --> A              
     e( 36 - 36) =     11.00196  eV     1   --> B              
     e( 37 - 37) =     11.02138  eV     1   --> A              
     e( 38 - 38) =     11.56502  eV     1   --> B              
     e( 39 - 39) =     13.47243  eV     1   --> B              
     e( 40 - 40) =     13.60119  eV     1   --> A              

 **************************************************************************

 **************************************************************************

                    xk=(   0.00000,   0.00000,  -0.31645  )

     point group D_3d (-3m) 
     there are  6 classes
     the character table:

       E     2C3   3C2'  i     2S6   3s_d 
A_1g   1.00  1.00  1.00  1.00  1.00  1.00
A_2g   1.00  1.00 -1.00  1.00  1.00 -1.00
E_g    2.00 -1.00  0.00  2.00 -1.00  0.00
A_1u   1.00  1.00  1.00 -1.00 -1.00 -1.00
A_2u   1.00  1.00 -1.00 -1.00 -1.00  1.00
E_u    2.00 -1.00  0.00 -2.00  1.00  0.00

     the symmetry operations in each class and the name of the first element:

     E        1
                                                                 
     2C3      3    4
                                                                 
     3C2'     2    5    6
                                                                 
     i        7
                                                                 
     2S6      9   10
                                                                 
     3s_d     8   11   12
                                                                 

     Band symmetry, D_3d (-3m)  point group:

     e(  1 -  1) =    -69.75955  eV     1   --> A_1g L_1       
     e(  2 -  2) =    -69.16037  eV     1   --> A_2u L_2'      
     e(  3 -  3) =    -69.15968  eV     1   --> A_1g L_1       
     e(  4 -  4) =    -36.51036  eV     1   --> A_2u L_2'      
     e(  5 -  6) =    -36.50755  eV     2   --> E_u  L_3'      
     e(  7 -  8) =    -35.91424  eV     2   --> E_u  L_3'      
     e(  9 -  9) =    -35.91062  eV     1   --> A_2u L_2'      
     e( 10 - 11) =    -35.90972  eV     2   --> E_g  L_3       
     e( 12 - 12) =    -35.90576  eV     1   --> A_1g L_1       
     e( 13 - 14) =    -14.72882  eV     2   --> E_u  L_3'      
     e( 15 - 16) =    -14.72518  eV     2   --> E_g  L_3       
     e( 17 - 17) =    -14.71771  eV     1   --> A_2u L_2'      
     e( 18 - 18) =    -14.71563  eV     1   --> A_1g L_1       
     e( 19 - 20) =    -14.69810  eV     2   --> E_g  L_3       
     e( 21 - 22) =    -14.68801  eV     2   --> E_u  L_3'      
     e( 23 - 23) =     -3.71393  eV     1   --> A_1g L_1       
     e( 24 - 24) =     -3.44528  eV     1   --> A_2u L_2'      
     e( 25 - 25) =      4.02714  eV     1   --> A_2u L_2'      
     e( 26 - 26) =      4.34451  eV     1   --> A_1g L_1       
     e( 27 - 28) =      6.77950  eV     2   --> E_u  L_3'      
     e( 29 - 30) =      6.81578  eV     2   --> E_g  L_3       
     e( 31 - 31) =      8.49034  eV     1   --> A_1g L_1       
     e( 32 - 32) =      8.74765  eV     1   --> A_2u L_2'      
     e( 33 - 34) =     10.12329  eV     2   --> E_u  L_3'      
     e( 35 - 35) =     10.81340  eV     1   --> A_1g L_1       
     e( 36 - 37) =     11.01740  eV     2   --> E_g  L_3       
     e( 38 - 38) =     11.55083  eV     1   --> A_2u L_2'      
     e( 39 - 39) =     13.47484  eV     1   --> A_2u L_2'      
     e( 40 - 40) =     13.68338  eV     1   -->   ?

 **************************************************************************

     BANDS        :   6m 5.72s CPU   4m50.90s WALL


   This run was terminated on:  16:11:47  26Oct2023            

=------------------------------------------------------------------------------=
   JOB DONE.
=------------------------------------------------------------------------------=
