
     Program PWSCF v.6.7MaX starts on 26Oct2023 at  7:55:48 

     This program is part of the open-source Quantum ESPRESSO suite
     for quantum simulation of materials; please cite
         "P. Giannozzi et al., J. Phys.:Condens. Matter 21 395502 (2009);
         "P. Giannozzi et al., J. Phys.:Condens. Matter 29 465901 (2017);
          URL http://www.quantum-espresso.org", 
     in publications or presentations arising from this work. More details at
     http://www.quantum-espresso.org/quote

     Parallel version (MPI), running on     4 processors

     MPI processes distributed on     1 nodes
     R & G space division:  proc/nbgrp/npool/nimage =       4
     Waiting for input...
     Reading input from standard input

     Current dimensions of program PWSCF are:
     Max number of different atomic species (ntypx) = 10
     Max number of k-points (npk) =  40000
     Max angular momentum in pseudopotentials (lmaxx) =  3
     file Mg.pbe-spnl-rrkjus_psl.1.0.0.UPF: wavefunction(s)  2P renormalized
     file Bi.pbe-dn-rrkjus_psl.1.0.0.UPF: wavefunction(s)  5D renormalized

     Subspace diagonalization in iterative solution of the eigenvalue problem:
     one sub-group per band group will be used
     scalapack distributed-memory algorithm (size of sub-group:  2*  2 procs)

     Message from routine setup:
     using ibrav=0 with symmetry is DISCOURAGED, use correct ibrav instead

     Parallelization info
     --------------------
     sticks:   dense  smooth     PW     G-vecs:    dense   smooth      PW
     Min         486     241     70                27690     9785    1486
     Max         487     243     71                27701     9790    1491
     Sum        1945     967    283               110773    39149    5955



     bravais-lattice index     =            0
     lattice parameter (alat)  =       8.8863  a.u.
     unit-cell volume          =     960.2083 (a.u.)^3
     number of atoms/cell      =            5
     number of atomic types    =            2
     number of electrons       =        60.00
     number of Kohn-Sham states=           36
     kinetic-energy cutoff     =      45.0000  Ry
     charge density cutoff     =     360.0000  Ry
     scf convergence threshold =      1.0E-09
     mixing beta               =       0.4000
     number of iterations used =            8  plain     mixing
     Exchange-correlation= PBE
                           (   1   4   3   4   0   0   0)

     celldm(1)=   8.886344  celldm(2)=   0.000000  celldm(3)=   0.000000
     celldm(4)=   0.000000  celldm(5)=   0.000000  celldm(6)=   0.000000

     crystal axes: (cart. coord. in units of alat)
               a(1) = (  -0.500000  -0.866025  -0.000000 )  
               a(2) = (  -0.500000   0.866025   0.000000 )  
               a(3) = (   0.000000   0.000000  -1.580030 )  

     reciprocal axes: (cart. coord. in units 2 pi/alat)
               b(1) = ( -1.000000 -0.577350 -0.000000 )  
               b(2) = ( -1.000000  0.577350  0.000000 )  
               b(3) = (  0.000000  0.000000 -0.632899 )  


     PseudoPot. # 1 for Mg read from file:
     ../pseudo/Mg.pbe-spnl-rrkjus_psl.1.0.0.UPF
     MD5 check sum: 9996ca2d31208a261ae42168ce6c5fae
     Pseudo is Ultrasoft + core correction, Zval = 10.0
     Generated using &quot;atomic&quot; code by A. Dal Corso  v.6.3
     Using radial grid of 1129 points,  4 beta functions with: 
                l(1) =   0
                l(2) =   0
                l(3) =   1
                l(4) =   1
     Q(r) pseudized with 0 coefficients 


     PseudoPot. # 2 for Bi read from file:
     ../pseudo/Bi.pbe-dn-rrkjus_psl.1.0.0.UPF
     MD5 check sum: f9abe7488ae443f53c935a63d0032572
     Pseudo is Ultrasoft + core correction, Zval = 15.0
     Generated using &quot;atomic&quot; code by A. Dal Corso  v.6.2.2
     Using radial grid of 1283 points,  6 beta functions with: 
                l(1) =   0
                l(2) =   0
                l(3) =   1
                l(4) =   1
                l(5) =   2
                l(6) =   2
     Q(r) pseudized with 0 coefficients 


     atomic species   valence    mass     pseudopotential
        Mg            10.00    24.30500     Mg( 1.00)
        Bi            15.00   208.98040     Bi( 1.00)

     12 Sym. Ops., with inversion, found


                                    s                        frac. trans.

      isym =  1     identity                                     

 cryst.   s( 1) = (     1          0          0      )
                  (     0          1          0      )
                  (     0          0          1      )

 cart.    s( 1) = (  1.0000000  0.0000000  0.0000000 )
                  (  0.0000000  1.0000000  0.0000000 )
                  (  0.0000000  0.0000000  1.0000000 )


      isym =  2     180 deg rotation - cart. axis [1,0,0]        

 cryst.   s( 2) = (     0          1          0      )
                  (     1          0          0      )
                  (     0          0         -1      )

 cart.    s( 2) = (  1.0000000  0.0000000  0.0000000 )
                  (  0.0000000 -1.0000000  0.0000000 )
                  (  0.0000000  0.0000000 -1.0000000 )


      isym =  3     120 deg rotation - cryst. axis [0,0,1]       

 cryst.   s( 3) = (    -1         -1          0      )
                  (     1          0          0      )
                  (     0          0          1      )

 cart.    s( 3) = ( -0.5000000 -0.8660254  0.0000000 )
                  (  0.8660254 -0.5000000  0.0000000 )
                  (  0.0000000  0.0000000  1.0000000 )


      isym =  4     120 deg rotation - cryst. axis [0,0,-1]      

 cryst.   s( 4) = (     0          1          0      )
                  (    -1         -1          0      )
                  (     0          0          1      )

 cart.    s( 4) = ( -0.5000000  0.8660254  0.0000000 )
                  ( -0.8660254 -0.5000000  0.0000000 )
                  (  0.0000000  0.0000000  1.0000000 )


      isym =  5     180 deg rotation - cryst. axis [0,1,0]       

 cryst.   s( 5) = (    -1         -1          0      )
                  (     0          1          0      )
                  (     0          0         -1      )

 cart.    s( 5) = ( -0.5000000 -0.8660254  0.0000000 )
                  ( -0.8660254  0.5000000  0.0000000 )
                  (  0.0000000  0.0000000 -1.0000000 )


      isym =  6     180 deg rotation - cryst. axis [1,1,0]       

 cryst.   s( 6) = (     1          0          0      )
                  (    -1         -1          0      )
                  (     0          0         -1      )

 cart.    s( 6) = ( -0.5000000  0.8660254  0.0000000 )
                  (  0.8660254  0.5000000  0.0000000 )
                  (  0.0000000  0.0000000 -1.0000000 )


      isym =  7     inversion                                    

 cryst.   s( 7) = (    -1          0          0      )
                  (     0         -1          0      )
                  (     0          0         -1      )

 cart.    s( 7) = ( -1.0000000  0.0000000  0.0000000 )
                  (  0.0000000 -1.0000000  0.0000000 )
                  (  0.0000000  0.0000000 -1.0000000 )


      isym =  8     inv. 180 deg rotation - cart. axis [1,0,0]   

 cryst.   s( 8) = (     0         -1          0      )
                  (    -1          0          0      )
                  (     0          0          1      )

 cart.    s( 8) = ( -1.0000000  0.0000000  0.0000000 )
                  (  0.0000000  1.0000000  0.0000000 )
                  (  0.0000000  0.0000000  1.0000000 )


      isym =  9     inv. 120 deg rotation - cryst. axis [0,0,1]  

 cryst.   s( 9) = (     1          1          0      )
                  (    -1          0          0      )
                  (     0          0         -1      )

 cart.    s( 9) = (  0.5000000  0.8660254  0.0000000 )
                  ( -0.8660254  0.5000000  0.0000000 )
                  (  0.0000000  0.0000000 -1.0000000 )


      isym = 10     inv. 120 deg rotation - cryst. axis [0,0,-1] 

 cryst.   s(10) = (     0         -1          0      )
                  (     1          1          0      )
                  (     0          0         -1      )

 cart.    s(10) = (  0.5000000 -0.8660254  0.0000000 )
                  (  0.8660254  0.5000000  0.0000000 )
                  (  0.0000000  0.0000000 -1.0000000 )


      isym = 11     inv. 180 deg rotation - cryst. axis [0,1,0]  

 cryst.   s(11) = (     1          1          0      )
                  (     0         -1          0      )
                  (     0          0          1      )

 cart.    s(11) = (  0.5000000  0.8660254  0.0000000 )
                  (  0.8660254 -0.5000000  0.0000000 )
                  (  0.0000000  0.0000000  1.0000000 )


      isym = 12     inv. 180 deg rotation - cryst. axis [1,1,0]  

 cryst.   s(12) = (    -1          0          0      )
                  (     1          1          0      )
                  (     0          0          1      )

 cart.    s(12) = (  0.5000000 -0.8660254  0.0000000 )
                  ( -0.8660254 -0.5000000  0.0000000 )
                  (  0.0000000  0.0000000  1.0000000 )


   Cartesian axes

     site n.     atom                  positions (alat units)
         1           Mg  tau(   1) = (   0.0000000   0.0000000   0.0000000  )
         2           Mg  tau(   2) = (  -0.5000000  -0.2886751  -0.5867145  )
         3           Mg  tau(   3) = (  -0.5000000   0.2886751  -0.9933158  )
         4           Bi  tau(   4) = (  -0.5000000  -0.2886751  -1.2306453  )
         5           Bi  tau(   5) = (  -0.5000000   0.2886751  -0.3493850  )

   Crystallographic axes

     site n.     atom                  positions (cryst. coord.)
         1           Mg  tau(   1) = ( -0.0000000  0.0000000  0.0000000  )
         2           Mg  tau(   2) = (  0.6666667  0.3333333  0.3713312  )
         3           Mg  tau(   3) = (  0.3333333  0.6666667  0.6286688  )
         4           Bi  tau(   4) = (  0.6666667  0.3333333  0.7788745  )
         5           Bi  tau(   5) = (  0.3333333  0.6666667  0.2211255  )

     number of k points=    40  Marzari-Vanderbilt smearing, width (Ry)=  0.0147
                       cart. coord. in units 2pi/alat
        k(    1) = (   0.0000000   0.0000000   0.0000000), wk =   0.0062500
        k(    2) = (   0.0000000   0.0000000  -0.1265799), wk =   0.0125000
        k(    3) = (   0.0000000   0.0000000  -0.2531597), wk =   0.0125000
        k(    4) = (  -0.1250000   0.0721688   0.0000000), wk =   0.0375000
        k(    5) = (  -0.1250000   0.0721688  -0.1265799), wk =   0.0375000
        k(    6) = (  -0.1250000   0.0721688  -0.2531597), wk =   0.0375000
        k(    7) = (  -0.2500000   0.1443376   0.0000000), wk =   0.0375000
        k(    8) = (  -0.2500000   0.1443376  -0.1265799), wk =   0.0375000
        k(    9) = (  -0.2500000   0.1443376  -0.2531597), wk =   0.0375000
        k(   10) = (  -0.3750000   0.2165064   0.0000000), wk =   0.0375000
        k(   11) = (  -0.3750000   0.2165064  -0.1265799), wk =   0.0375000
        k(   12) = (  -0.3750000   0.2165064  -0.2531597), wk =   0.0375000
        k(   13) = (   0.5000000  -0.2886751  -0.0000000), wk =   0.0187500
        k(   14) = (   0.5000000  -0.2886751  -0.1265799), wk =   0.0375000
        k(   15) = (   0.5000000  -0.2886751  -0.2531597), wk =   0.0375000
        k(   16) = (  -0.2500000   0.0000000   0.0000000), wk =   0.0375000
        k(   17) = (  -0.2500000   0.0000000  -0.1265799), wk =   0.0750000
        k(   18) = (  -0.2500000   0.0000000  -0.2531597), wk =   0.0750000
        k(   19) = (  -0.3750000   0.0721688   0.0000000), wk =   0.0750000
        k(   20) = (  -0.3750000   0.0721688  -0.1265799), wk =   0.0750000
        k(   21) = (  -0.3750000   0.0721688  -0.2531597), wk =   0.0750000
        k(   22) = (  -0.5000000   0.1443376   0.0000000), wk =   0.0750000
        k(   23) = (  -0.5000000   0.1443376  -0.1265799), wk =   0.0750000
        k(   24) = (  -0.5000000   0.1443376  -0.2531597), wk =   0.0750000
        k(   25) = (  -0.5000000   0.0000000   0.0000000), wk =   0.0375000
        k(   26) = (  -0.5000000   0.0000000  -0.1265799), wk =   0.0750000
        k(   27) = (  -0.5000000   0.0000000  -0.2531597), wk =   0.0750000
        k(   28) = (  -0.6250000   0.0721688   0.0000000), wk =   0.0375000
        k(   29) = (  -0.6250000   0.0721688  -0.1265799), wk =   0.0750000
        k(   30) = (  -0.6250000   0.0721688  -0.2531597), wk =   0.0750000
        k(   31) = (   0.1250000   0.0721688   0.1265799), wk =   0.0375000
        k(   32) = (   0.1250000   0.0721688   0.2531597), wk =   0.0375000
        k(   33) = (   0.2500000   0.1443376   0.1265799), wk =   0.0375000
        k(   34) = (   0.2500000   0.1443376   0.2531597), wk =   0.0375000
        k(   35) = (   0.3750000   0.2165064   0.1265799), wk =   0.0375000
        k(   36) = (   0.3750000   0.2165064   0.2531597), wk =   0.0375000
        k(   37) = (   0.3750000   0.0721688   0.1265799), wk =   0.0750000
        k(   38) = (   0.3750000   0.0721688   0.2531597), wk =   0.0750000
        k(   39) = (   0.5000000   0.1443376   0.1265799), wk =   0.0750000
        k(   40) = (   0.5000000   0.1443376   0.2531597), wk =   0.0750000

                       cryst. coord.
        k(    1) = (  -0.0000000   0.0000000   0.0000000), wk =   0.0062500
        k(    2) = (   0.0000000   0.0000000   0.2000000), wk =   0.0125000
        k(    3) = (   0.0000000   0.0000000   0.4000000), wk =   0.0125000
        k(    4) = (   0.0000000   0.1250000   0.0000000), wk =   0.0375000
        k(    5) = (   0.0000000   0.1250000   0.2000000), wk =   0.0375000
        k(    6) = (   0.0000000   0.1250000   0.4000000), wk =   0.0375000
        k(    7) = (   0.0000000   0.2500000   0.0000000), wk =   0.0375000
        k(    8) = (   0.0000000   0.2500000   0.2000000), wk =   0.0375000
        k(    9) = (   0.0000000   0.2500000   0.4000000), wk =   0.0375000
        k(   10) = (   0.0000000   0.3750000   0.0000000), wk =   0.0375000
        k(   11) = (   0.0000000   0.3750000   0.2000000), wk =   0.0375000
        k(   12) = (   0.0000000   0.3750000   0.4000000), wk =   0.0375000
        k(   13) = (  -0.0000000  -0.5000000   0.0000000), wk =   0.0187500
        k(   14) = (  -0.0000000  -0.5000000   0.2000000), wk =   0.0375000
        k(   15) = (  -0.0000000  -0.5000000   0.4000000), wk =   0.0375000
        k(   16) = (   0.1250000   0.1250000   0.0000000), wk =   0.0375000
        k(   17) = (   0.1250000   0.1250000   0.2000000), wk =   0.0750000
        k(   18) = (   0.1250000   0.1250000   0.4000000), wk =   0.0750000
        k(   19) = (   0.1250000   0.2500000   0.0000000), wk =   0.0750000
        k(   20) = (   0.1250000   0.2500000   0.2000000), wk =   0.0750000
        k(   21) = (   0.1250000   0.2500000   0.4000000), wk =   0.0750000
        k(   22) = (   0.1250000   0.3750000   0.0000000), wk =   0.0750000
        k(   23) = (   0.1250000   0.3750000   0.2000000), wk =   0.0750000
        k(   24) = (   0.1250000   0.3750000   0.4000000), wk =   0.0750000
        k(   25) = (   0.2500000   0.2500000   0.0000000), wk =   0.0375000
        k(   26) = (   0.2500000   0.2500000   0.2000000), wk =   0.0750000
        k(   27) = (   0.2500000   0.2500000   0.4000000), wk =   0.0750000
        k(   28) = (   0.2500000   0.3750000   0.0000000), wk =   0.0375000
        k(   29) = (   0.2500000   0.3750000   0.2000000), wk =   0.0750000
        k(   30) = (   0.2500000   0.3750000   0.4000000), wk =   0.0750000
        k(   31) = (  -0.1250000  -0.0000000  -0.2000000), wk =   0.0375000
        k(   32) = (  -0.1250000  -0.0000000  -0.4000000), wk =   0.0375000
        k(   33) = (  -0.2500000  -0.0000000  -0.2000000), wk =   0.0375000
        k(   34) = (  -0.2500000  -0.0000000  -0.4000000), wk =   0.0375000
        k(   35) = (  -0.3750000  -0.0000000  -0.2000000), wk =   0.0375000
        k(   36) = (  -0.3750000  -0.0000000  -0.4000000), wk =   0.0375000
        k(   37) = (  -0.2500000  -0.1250000  -0.2000000), wk =   0.0750000
        k(   38) = (  -0.2500000  -0.1250000  -0.4000000), wk =   0.0750000
        k(   39) = (  -0.3750000  -0.1250000  -0.2000000), wk =   0.0750000
        k(   40) = (  -0.3750000  -0.1250000  -0.4000000), wk =   0.0750000

     Dense  grid:   110773 G-vectors     FFT dimensions: (  54,  54,  90)

     Smooth grid:    39149 G-vectors     FFT dimensions: (  40,  40,  60)

     Dynamical RAM for                 wfc:       0.67 MB

     Dynamical RAM for     wfc (w. buffer):      27.54 MB

     Dynamical RAM for           str. fact:       0.85 MB

     Dynamical RAM for           local pot:       0.00 MB

     Dynamical RAM for          nlocal pot:       1.12 MB

     Dynamical RAM for                qrad:       3.05 MB

     Dynamical RAM for          rho,v,vnew:       2.80 MB

     Dynamical RAM for               rhoin:       0.93 MB

     Dynamical RAM for            rho*nmix:       6.76 MB

     Dynamical RAM for           G-vectors:       1.66 MB

     Dynamical RAM for          h,s,v(r/c):       0.06 MB

     Dynamical RAM for          <psi|beta>:       0.03 MB

     Dynamical RAM for                 psi:       1.34 MB

     Dynamical RAM for                hpsi:       1.34 MB

     Dynamical RAM for                spsi:       1.34 MB

     Dynamical RAM for      wfcinit/wfcrot:       1.37 MB

     Dynamical RAM for           addusdens:      79.86 MB

     Estimated static dynamical RAM per process >      48.54 MB

     Estimated max dynamical RAM per process >     128.40 MB

     Estimated total dynamical RAM >     513.60 MB

     Check: negative core charge=   -0.000010

     Initial potential from superposition of free atoms

     starting charge   59.99560, renormalised to   60.00000
     Starting wfcs are   33 randomized atomic wfcs +    3 random wfcs

     total cpu time spent up to now is       36.1 secs

     Self-consistent Calculation

     iteration #  1     ecut=    45.00 Ry     beta= 0.40
     Davidson diagonalization with overlap
     ethr =  1.00E-02,  avg # of iterations =  5.0

     Threshold (ethr) on eigenvalues was too large:
     Diagonalizing with lowered threshold

     Davidson diagonalization with overlap
     ethr =  2.07E-04,  avg # of iterations =  4.3

     total cpu time spent up to now is      430.7 secs

     total energy              =    -690.55470706 Ry
     estimated scf accuracy    <       0.11884553 Ry

     iteration #  2     ecut=    45.00 Ry     beta= 0.40
     Davidson diagonalization with overlap
     ethr =  1.98E-04,  avg # of iterations =  2.0

     total cpu time spent up to now is      567.9 secs

     total energy              =    -690.56215175 Ry
     estimated scf accuracy    <       0.01727258 Ry

     iteration #  3     ecut=    45.00 Ry     beta= 0.40
     Davidson diagonalization with overlap
     ethr =  2.88E-05,  avg # of iterations =  5.5

     total cpu time spent up to now is      794.0 secs

     total energy              =    -690.56372383 Ry
     estimated scf accuracy    <       0.00325183 Ry

     iteration #  4     ecut=    45.00 Ry     beta= 0.40
     Davidson diagonalization with overlap
     ethr =  5.42E-06,  avg # of iterations =  4.8

     total cpu time spent up to now is      992.0 secs

     total energy              =    -690.56421902 Ry
     estimated scf accuracy    <       0.00082344 Ry

     iteration #  5     ecut=    45.00 Ry     beta= 0.40
     Davidson diagonalization with overlap
     ethr =  1.37E-06,  avg # of iterations =  2.3

     total cpu time spent up to now is     1130.4 secs

     total energy              =    -690.56430443 Ry
     estimated scf accuracy    <       0.00005385 Ry

     iteration #  6     ecut=    45.00 Ry     beta= 0.40
     Davidson diagonalization with overlap
     ethr =  8.98E-08,  avg # of iterations =  3.7

     total cpu time spent up to now is     1328.5 secs

     total energy              =    -690.56431360 Ry
     estimated scf accuracy    <       0.00000619 Ry

     iteration #  7     ecut=    45.00 Ry     beta= 0.40
     Davidson diagonalization with overlap
     ethr =  1.03E-08,  avg # of iterations =  2.9

     total cpu time spent up to now is     1476.5 secs

     total energy              =    -690.56431530 Ry
     estimated scf accuracy    <       0.00000057 Ry

     iteration #  8     ecut=    45.00 Ry     beta= 0.40
     Davidson diagonalization with overlap
     ethr =  9.42E-10,  avg # of iterations =  3.9

     total cpu time spent up to now is     1684.8 secs

     total energy              =    -690.56431551 Ry
     estimated scf accuracy    <       0.00000003 Ry

     iteration #  9     ecut=    45.00 Ry     beta= 0.40
     Davidson diagonalization with overlap
     ethr =  4.33E-11,  avg # of iterations =  3.8

     total cpu time spent up to now is     1895.8 secs

     total energy              =    -690.56431554 Ry
     estimated scf accuracy    <          9.6E-09 Ry

     iteration # 10     ecut=    45.00 Ry     beta= 0.40
     Davidson diagonalization with overlap
     ethr =  1.59E-11,  avg # of iterations =  2.0

     total cpu time spent up to now is     2045.7 secs

     End of self-consistent calculation

          k = 0.0000 0.0000 0.0000 (  4925 PWs)   bands (ev):

   -69.7593 -69.1605 -69.1596 -36.5108 -36.5072 -36.5072 -35.9135 -35.9135
   -35.9104 -35.9104 -35.9092 -35.9088 -14.7275 -14.7275 -14.7270 -14.7270
   -14.7174 -14.7164 -14.6981 -14.6981 -14.6881 -14.6881  -3.9691  -3.0900
     2.6305   6.4565   6.4565   7.1589   7.1589   7.2099   7.4085   8.2238
    10.5192  10.5192  11.2168  11.4351

     occupation numbers 
     1.0000   1.0000   1.0000   1.0000   1.0000   1.0000   1.0000   1.0000
     1.0000   1.0000   1.0000   1.0000   1.0000   1.0000   1.0000   1.0000
     1.0000   1.0000   1.0000   1.0000   1.0000   1.0000   1.0000   1.0000
     1.0000   1.0000   1.0000   0.9315   0.9315   0.7757   0.1439   0.0000
     0.0000   0.0000   0.0000   0.0000

          k = 0.0000 0.0000-0.1266 (  4914 PWs)   bands (ev):

   -69.7593 -69.1604 -69.1597 -36.5097 -36.5074 -36.5074 -35.9142 -35.9142
   -35.9102 -35.9102 -35.9097 -35.9062 -14.7283 -14.7283 -14.7261 -14.7261
   -14.7176 -14.7161 -14.6981 -14.6981 -14.6881 -14.6881  -3.9087  -3.1858
     2.9059   6.0417   6.5188   6.5188   7.0905   7.0905   8.0928   8.5318
    10.3230  10.3230  11.0669  11.6040

     occupation numbers 
     1.0000   1.0000   1.0000   1.0000   1.0000   1.0000   1.0000   1.0000
     1.0000   1.0000   1.0000   1.0000   1.0000   1.0000   1.0000   1.0000
     1.0000   1.0000   1.0000   1.0000   1.0000   1.0000   1.0000   1.0000
     1.0000   1.0000   1.0000   1.0000   1.0546   1.0546   0.0000   0.0000
     0.0000   0.0000   0.0000   0.0000

          k = 0.0000 0.0000-0.2532 (  4944 PWs)   bands (ev):

   -69.7593 -69.1605 -69.1597 -36.5115 -36.5079 -36.5079 -35.9150 -35.9150
   -35.9114 -35.9103 -35.9103 -35.9078 -14.7289 -14.7289 -14.7254 -14.7254
   -14.7179 -14.7158 -14.6982 -14.6982 -14.6882 -14.6882  -3.7596  -3.3906
     3.6483   4.7853   6.6874   6.6874   6.9099   6.9099   8.4062   8.7767
    10.1438  10.1439  10.8162  11.0646

     occupation numbers 
     1.0000   1.0000   1.0000   1.0000   1.0000   1.0000   1.0000   1.0000
     1.0000   1.0000   1.0000   1.0000   1.0000   1.0000   1.0000   1.0000
     1.0000   1.0000   1.0000   1.0000   1.0000   1.0000   1.0000   1.0000
     1.0000   1.0000   1.0008   1.0008   1.0402   1.0402   0.0000   0.0000
     0.0000   0.0000   0.0000   0.0000

          k =-0.1250 0.0722 0.0000 (  4905 PWs)   bands (ev):

   -69.7592 -69.1604 -69.1596 -36.5101 -36.5071 -36.5070 -35.9135 -35.9134
   -35.9109 -35.9102 -35.9084 -35.9075 -14.7286 -14.7278 -14.7264 -14.7258
   -14.7169 -14.7159 -14.6978 -14.6975 -14.6886 -14.6876  -3.8881  -3.0521
     2.7629   5.4055   5.8862   6.1584   7.1690   7.3349   8.5260   8.9394
     9.9445  10.6935  10.7877  11.3763

     occupation numbers 
     1.0000   1.0000   1.0000   1.0000   1.0000   1.0000   1.0000   1.0000
     1.0000   1.0000   1.0000   1.0000   1.0000   1.0000   1.0000   1.0000
     1.0000   1.0000   1.0000   1.0000   1.0000   1.0000   1.0000   1.0000
     1.0000   1.0000   1.0000   1.0000   0.9044   0.3269   0.0000   0.0000
     0.0000   0.0000   0.0000   0.0000

          k =-0.1250 0.0722-0.1266 (  4919 PWs)   bands (ev):

   -69.7593 -69.1604 -69.1597 -36.5108 -36.5076 -36.5069 -35.9139 -35.9135
   -35.9117 -35.9099 -35.9094 -35.9075 -14.7294 -14.7271 -14.7263 -14.7256
   -14.7171 -14.7157 -14.6977 -14.6976 -14.6887 -14.6876  -3.8303  -3.1417
     3.0054   5.3769   5.6449   6.2579   6.9982   7.0053   8.7535   8.9137
    10.0474  10.8211  10.8599  10.9714

     occupation numbers 
     1.0000   1.0000   1.0000   1.0000   1.0000   1.0000   1.0000   1.0000
     1.0000   1.0000   1.0000   1.0000   1.0000   1.0000   1.0000   1.0000
     1.0000   1.0000   1.0000   1.0000   1.0000   1.0000   1.0000   1.0000
     1.0000   1.0000   1.0000   1.0000   1.0782   1.0802   0.0000   0.0000
     0.0000   0.0000   0.0000   0.0000

          k =-0.1250 0.0722-0.2532 (  4916 PWs)   bands (ev):

   -69.7593 -69.1604 -69.1597 -36.5103 -36.5076 -36.5070 -35.9143 -35.9136
   -35.9111 -35.9103 -35.9093 -35.9065 -14.7296 -14.7280 -14.7254 -14.7254
   -14.7173 -14.7154 -14.6978 -14.6976 -14.6887 -14.6877  -3.6864  -3.3350
     3.6503   4.6110   5.8631   6.4509   6.4834   6.7124   8.8659   9.1966
    10.0199  10.5121  10.6405  11.5074

     occupation numbers 
     1.0000   1.0000   1.0000   1.0000   1.0000   1.0000   1.0000   1.0000
     1.0000   1.0000   1.0000   1.0000   1.0000   1.0000   1.0000   1.0000
     1.0000   1.0000   1.0000   1.0000   1.0000   1.0000   1.0000   1.0000
     1.0000   1.0000   1.0000   1.0000   1.0000   1.0015   0.0000   0.0000
     0.0000   0.0000   0.0000   0.0000

          k =-0.2500 0.1443 0.0000 (  4908 PWs)   bands (ev):

   -69.7592 -69.1604 -69.1597 -36.5105 -36.5076 -36.5069 -35.9143 -35.9135
   -35.9117 -35.9104 -35.9081 -35.9073 -14.7305 -14.7278 -14.7262 -14.7238
   -14.7159 -14.7148 -14.6968 -14.6960 -14.6898 -14.6865  -3.6679  -2.9680
     3.1474   4.0923   4.8028   5.6897   6.8072   6.9970   8.4116   9.1303
    10.1152  10.5841  11.0004  11.3456

     occupation numbers 
     1.0000   1.0000   1.0000   1.0000   1.0000   1.0000   1.0000   1.0000
     1.0000   1.0000   1.0000   1.0000   1.0000   1.0000   1.0000   1.0000
     1.0000   1.0000   1.0000   1.0000   1.0000   1.0000   1.0000   1.0000
     1.0000   1.0000   1.0000   1.0000   1.0095   1.0779   0.0000   0.0000
     0.0000   0.0000   0.0000   0.0000

          k =-0.2500 0.1443-0.1266 (  4907 PWs)   bands (ev):

   -69.7592 -69.1603 -69.1597 -36.5106 -36.5071 -36.5068 -35.9139 -35.9133
   -35.9118 -35.9099 -35.9085 -35.9073 -14.7310 -14.7268 -14.7257 -14.7247
   -14.7160 -14.7145 -14.6965 -14.6961 -14.6901 -14.6865  -3.6175  -3.0381
     3.1867   4.2684   4.7252   5.7903   6.7670   6.7808   7.9740   9.0839
    10.5703  10.9501  11.1414  11.4893

     occupation numbers 
     1.0000   1.0000   1.0000   1.0000   1.0000   1.0000   1.0000   1.0000
     1.0000   1.0000   1.0000   1.0000   1.0000   1.0000   1.0000   1.0000
     1.0000   1.0000   1.0000   1.0000   1.0000   1.0000   1.0000   1.0000
     1.0000   1.0000   1.0000   1.0000   1.0046   1.0060   0.0000   0.0000
     0.0000   0.0000   0.0000   0.0000

          k =-0.2500 0.1443-0.2532 (  4903 PWs)   bands (ev):

   -69.7592 -69.1603 -69.1597 -36.5108 -36.5068 -36.5064 -35.9134 -35.9126
   -35.9118 -35.9097 -35.9088 -35.9071 -14.7308 -14.7265 -14.7261 -14.7248
   -14.7163 -14.7141 -14.6966 -14.6959 -14.6899 -14.6867  -3.4917  -3.1960
     3.4142   4.0122   5.2104   6.0299   6.1198   6.4166   7.9839   9.2860
    10.3198  11.1273  11.5619  11.7169

     occupation numbers 
     1.0000   1.0000   1.0000   1.0000   1.0000   1.0000   1.0000   1.0000
     1.0000   1.0000   1.0000   1.0000   1.0000   1.0000   1.0000   1.0000
     1.0000   1.0000   1.0000   1.0000   1.0000   1.0000   1.0000   1.0000
     1.0000   1.0000   1.0000   1.0000   1.0000   1.0000   0.0000   0.0000
     0.0000   0.0000   0.0000   0.0000

          k =-0.3750 0.2165 0.0000 (  4874 PWs)   bands (ev):

   -69.7592 -69.1602 -69.1597 -36.5098 -36.5066 -36.5055 -35.9137 -35.9119
   -35.9108 -35.9091 -35.9072 -35.9067 -14.7321 -14.7276 -14.7261 -14.7220
   -14.7151 -14.7134 -14.6952 -14.6943 -14.6913 -14.6853  -3.3843  -2.9168
     3.1636   3.7658   4.0425   5.3535   5.9333   6.7800   7.8662   9.0519
     9.7490  10.2975  11.5513  12.1791

     occupation numbers 
     1.0000   1.0000   1.0000   1.0000   1.0000   1.0000   1.0000   1.0000
     1.0000   1.0000   1.0000   1.0000   1.0000   1.0000   1.0000   1.0000
     1.0000   1.0000   1.0000   1.0000   1.0000   1.0000   1.0000   1.0000
     1.0000   1.0000   1.0000   1.0000   1.0000   1.0059   0.0000   0.0000
     0.0000   0.0000   0.0000   0.0000

          k =-0.3750 0.2165-0.1266 (  4894 PWs)   bands (ev):

   -69.7592 -69.1602 -69.1598 -36.5108 -36.5067 -36.5062 -35.9139 -35.9133
   -35.9117 -35.9090 -35.9082 -35.9067 -14.7323 -14.7268 -14.7262 -14.7228
   -14.7154 -14.7130 -14.6948 -14.6943 -14.6918 -14.6853  -3.3482  -2.9574
     2.9402   3.7043   4.4385   5.4489   6.1844   6.5590   7.5721   8.6804
    10.4845  10.7379  10.7545  12.0152

     occupation numbers 
     1.0000   1.0000   1.0000   1.0000   1.0000   1.0000   1.0000   1.0000
     1.0000   1.0000   1.0000   1.0000   1.0000   1.0000   1.0000   1.0000
     1.0000   1.0000   1.0000   1.0000   1.0000   1.0000   1.0000   1.0000
     1.0000   1.0000   1.0000   1.0000   1.0000   1.0000   0.0094   0.0000
     0.0000   0.0000   0.0000   0.0000

          k =-0.3750 0.2165-0.2532 (  4893 PWs)   bands (ev):

   -69.7592 -69.1602 -69.1598 -36.5106 -36.5068 -36.5063 -35.9139 -35.9131
   -35.9116 -35.9091 -35.9078 -35.9070 -14.7319 -14.7270 -14.7259 -14.7235
   -14.7157 -14.7124 -14.6947 -14.6941 -14.6916 -14.6856  -3.2565  -3.0575
     2.8703   3.3723   5.2551   5.6910   6.1624   6.1695   7.4309   8.8885
     9.8037  10.0516  11.6862  12.3288

     occupation numbers 
     1.0000   1.0000   1.0000   1.0000   1.0000   1.0000   1.0000   1.0000
     1.0000   1.0000   1.0000   1.0000   1.0000   1.0000   1.0000   1.0000
     1.0000   1.0000   1.0000   1.0000   1.0000   1.0000   1.0000   1.0000
     1.0000   1.0000   1.0000   1.0000   1.0000   1.0000   0.1067   0.0000
     0.0000   0.0000   0.0000   0.0000

          k = 0.5000-0.2887-0.0000 (  4874 PWs)   bands (ev):

   -69.7592 -69.1601 -69.1598 -36.5097 -36.5065 -36.5058 -35.9133 -35.9125
   -35.9115 -35.9092 -35.9067 -35.9065 -14.7328 -14.7276 -14.7262 -14.7214
   -14.7149 -14.7128 -14.6941 -14.6936 -14.6925 -14.6847  -3.2174  -2.9346
     2.8481   3.7385   4.2675   5.2348   5.3116   6.6911   7.6891   8.9787
     9.6126  10.1912  12.2426  12.2790

     occupation numbers 
     1.0000   1.0000   1.0000   1.0000   1.0000   1.0000   1.0000   1.0000
     1.0000   1.0000   1.0000   1.0000   1.0000   1.0000   1.0000   1.0000
     1.0000   1.0000   1.0000   1.0000   1.0000   1.0000   1.0000   1.0000
     1.0000   1.0000   1.0000   1.0000   1.0000   1.0009   0.0006   0.0000
     0.0000   0.0000   0.0000   0.0000

          k = 0.5000-0.2887-0.1266 (  4870 PWs)   bands (ev):

   -69.7592 -69.1601 -69.1598 -36.5102 -36.5064 -36.5052 -35.9136 -35.9115
   -35.9113 -35.9087 -35.9072 -35.9066 -14.7326 -14.7271 -14.7266 -14.7218
   -14.7152 -14.7123 -14.6939 -14.6935 -14.6925 -14.6849  -3.1913  -2.9579
     2.7359   3.4516   4.6043   5.3240   5.7993   6.4816   7.5859   8.5175
    10.1250  10.5843  11.0972  11.2854

     occupation numbers 
     1.0000   1.0000   1.0000   1.0000   1.0000   1.0000   1.0000   1.0000
     1.0000   1.0000   1.0000   1.0000   1.0000   1.0000   1.0000   1.0000
     1.0000   1.0000   1.0000   1.0000   1.0000   1.0000   1.0000   1.0000
     1.0000   1.0000   1.0000   1.0000   1.0000   1.0000   0.0071   0.0000
     0.0000   0.0000   0.0000   0.0000

          k = 0.5000-0.2887-0.2532 (  4880 PWs)   bands (ev):

   -69.7592 -69.1601 -69.1599 -36.5110 -36.5063 -36.5055 -35.9136 -35.9122
   -35.9119 -35.9084 -35.9077 -35.9070 -14.7321 -14.7276 -14.7260 -14.7227
   -14.7156 -14.7117 -14.6934 -14.6932 -14.6928 -14.6853  -3.1285  -3.0164
     2.6365   3.0878   5.3506   5.5639   6.0763   6.1723   7.5491   8.5612
     9.2226   9.8984  11.5059  12.1425

     occupation numbers 
     1.0000   1.0000   1.0000   1.0000   1.0000   1.0000   1.0000   1.0000
     1.0000   1.0000   1.0000   1.0000   1.0000   1.0000   1.0000   1.0000
     1.0000   1.0000   1.0000   1.0000   1.0000   1.0000   1.0000   1.0000
     1.0000   1.0000   1.0000   1.0000   1.0000   1.0000   0.0149   0.0000
     0.0000   0.0000   0.0000   0.0000

          k =-0.2500 0.0000 0.0000 (  4909 PWs)   bands (ev):

   -69.7592 -69.1604 -69.1597 -36.5104 -36.5074 -36.5072 -35.9141 -35.9138
   -35.9115 -35.9102 -35.9084 -35.9073 -14.7296 -14.7283 -14.7257 -14.7247
   -14.7161 -14.7151 -14.6970 -14.6966 -14.6893 -14.6870  -3.7371  -2.9908
     3.0226   4.6992   4.7017   5.9389   6.7489   7.0103   9.2261   9.5357
     9.5394  10.3830  10.4482  11.5428

     occupation numbers 
     1.0000   1.0000   1.0000   1.0000   1.0000   1.0000   1.0000   1.0000
     1.0000   1.0000   1.0000   1.0000   1.0000   1.0000   1.0000   1.0000
     1.0000   1.0000   1.0000   1.0000   1.0000   1.0000   1.0000   1.0000
     1.0000   1.0000   1.0000   1.0000   1.0032   1.0813   0.0000   0.0000
     0.0000   0.0000   0.0000   0.0000

          k =-0.2500 0.0000-0.1266 (  4913 PWs)   bands (ev):

   -69.7593 -69.1604 -69.1597 -36.5107 -36.5073 -36.5070 -35.9140 -35.9136
   -35.9116 -35.9101 -35.9089 -35.9073 -14.7299 -14.7278 -14.7261 -14.7245
   -14.7163 -14.7149 -14.6971 -14.6965 -14.6893 -14.6871  -3.6837  -3.0682
     3.1850   4.5593   4.8862   5.8138   6.5859   6.9609   8.8844   9.5857
     9.7898  10.4230  10.7046  11.3063

     occupation numbers 
     1.0000   1.0000   1.0000   1.0000   1.0000   1.0000   1.0000   1.0000
     1.0000   1.0000   1.0000   1.0000   1.0000   1.0000   1.0000   1.0000
     1.0000   1.0000   1.0000   1.0000   1.0000   1.0000   1.0000   1.0000
     1.0000   1.0000   1.0000   1.0000   1.0001   1.0637   0.0000   0.0000
     0.0000   0.0000   0.0000   0.0000

          k =-0.2500 0.0000-0.2532 (  4915 PWs)   bands (ev):

   -69.7593 -69.1604 -69.1597 -36.5110 -36.5071 -36.5068 -35.9140 -35.9135
   -35.9119 -35.9093 -35.9091 -35.9073 -14.7300 -14.7277 -14.7258 -14.7247
   -14.7164 -14.7146 -14.6970 -14.6964 -14.6893 -14.6872  -3.5514  -3.2382
     3.5934   4.1428   5.4168   5.8055   6.2665   6.3496   8.9231   9.7789
    10.0105  10.3019  10.8033  11.5973

     occupation numbers 
     1.0000   1.0000   1.0000   1.0000   1.0000   1.0000   1.0000   1.0000
     1.0000   1.0000   1.0000   1.0000   1.0000   1.0000   1.0000   1.0000
     1.0000   1.0000   1.0000   1.0000   1.0000   1.0000   1.0000   1.0000
     1.0000   1.0000   1.0000   1.0000   1.0000   1.0000   0.0000   0.0000
     0.0000   0.0000   0.0000   0.0000

          k =-0.3750 0.0722 0.0000 (  4894 PWs)   bands (ev):

   -69.7592 -69.1603 -69.1597 -36.5103 -36.5071 -36.5062 -35.9140 -35.9130
   -35.9116 -35.9094 -35.9076 -35.9072 -14.7311 -14.7282 -14.7256 -14.7229
   -14.7151 -14.7140 -14.6958 -14.6952 -14.6903 -14.6860  -3.4810  -2.9224
     3.4785   3.6743   4.1520   5.2426   6.3216   6.3403   8.6088   9.4923
     9.8940  10.5599  11.2277  11.5541

     occupation numbers 
     1.0000   1.0000   1.0000   1.0000   1.0000   1.0000   1.0000   1.0000
     1.0000   1.0000   1.0000   1.0000   1.0000   1.0000   1.0000   1.0000
     1.0000   1.0000   1.0000   1.0000   1.0000   1.0000   1.0000   1.0000
     1.0000   1.0000   1.0000   1.0000   1.0000   1.0000   0.0000   0.0000
     0.0000   0.0000   0.0000   0.0000

          k =-0.3750 0.0722-0.1266 (  4886 PWs)   bands (ev):

   -69.7592 -69.1602 -69.1597 -36.5103 -36.5070 -36.5056 -35.9138 -35.9128
   -35.9111 -35.9094 -35.9074 -35.9066 -14.7313 -14.7276 -14.7255 -14.7235
   -14.7152 -14.7137 -14.6954 -14.6952 -14.6905 -14.6861  -3.4385  -2.9748
     3.2155   3.8289   4.4842   5.1484   6.0775   6.6169   8.3319   9.4974
     9.8965  10.8952  11.0416  11.5665

     occupation numbers 
     1.0000   1.0000   1.0000   1.0000   1.0000   1.0000   1.0000   1.0000
     1.0000   1.0000   1.0000   1.0000   1.0000   1.0000   1.0000   1.0000
     1.0000   1.0000   1.0000   1.0000   1.0000   1.0000   1.0000   1.0000
     1.0000   1.0000   1.0000   1.0000   1.0000   1.0001   0.0000   0.0000
     0.0000   0.0000   0.0000   0.0000

          k =-0.3750 0.0722-0.2532 (  4890 PWs)   bands (ev):

   -69.7592 -69.1602 -69.1598 -36.5106 -36.5070 -36.5057 -35.9138 -35.9125
   -35.9115 -35.9094 -35.9077 -35.9069 -14.7310 -14.7273 -14.7254 -14.7244
   -14.7154 -14.7133 -14.6953 -14.6951 -14.6904 -14.6864  -3.3331  -3.0971
     3.1942   3.5853   5.0669   5.4644   5.6915   6.4212   8.2783   9.7662
     9.9771  10.6826  10.9927  11.2599

     occupation numbers 
     1.0000   1.0000   1.0000   1.0000   1.0000   1.0000   1.0000   1.0000
     1.0000   1.0000   1.0000   1.0000   1.0000   1.0000   1.0000   1.0000
     1.0000   1.0000   1.0000   1.0000   1.0000   1.0000   1.0000   1.0000
     1.0000   1.0000   1.0000   1.0000   1.0000   1.0000   0.0000   0.0000
     0.0000   0.0000   0.0000   0.0000

          k =-0.5000 0.1443 0.0000 (  4885 PWs)   bands (ev):

   -69.7592 -69.1601 -69.1598 -36.5103 -36.5069 -36.5057 -35.9138 -35.9124
   -35.9120 -35.9091 -35.9073 -35.9067 -14.7322 -14.7278 -14.7260 -14.7217
   -14.7146 -14.7130 -14.6952 -14.6932 -14.6915 -14.6853  -3.2304  -2.9230
     3.0123   3.8414   4.1846   4.7654   5.5198   6.0938   8.2367   9.1619
     9.8615  10.9506  12.0771  12.5247

     occupation numbers 
     1.0000   1.0000   1.0000   1.0000   1.0000   1.0000   1.0000   1.0000
     1.0000   1.0000   1.0000   1.0000   1.0000   1.0000   1.0000   1.0000
     1.0000   1.0000   1.0000   1.0000   1.0000   1.0000   1.0000   1.0000
     1.0000   1.0000   1.0000   1.0000   1.0000   1.0000   0.0000   0.0000
     0.0000   0.0000   0.0000   0.0000

          k =-0.5000 0.1443-0.1266 (  4883 PWs)   bands (ev):

   -69.7592 -69.1601 -69.1598 -36.5104 -36.5066 -36.5057 -35.9134 -35.9125
   -35.9119 -35.9088 -35.9074 -35.9069 -14.7321 -14.7272 -14.7263 -14.7222
   -14.7148 -14.7126 -14.6949 -14.6930 -14.6918 -14.6855  -3.2042  -2.9471
     2.8787   3.5573   4.4893   4.9651   5.7718   6.0253   8.1789   9.2999
     9.6529  11.0048  11.0444  12.3708

     occupation numbers 
     1.0000   1.0000   1.0000   1.0000   1.0000   1.0000   1.0000   1.0000
     1.0000   1.0000   1.0000   1.0000   1.0000   1.0000   1.0000   1.0000
     1.0000   1.0000   1.0000   1.0000   1.0000   1.0000   1.0000   1.0000
     1.0000   1.0000   1.0000   1.0000   1.0000   1.0000   0.0000   0.0000
     0.0000   0.0000   0.0000   0.0000

          k =-0.5000 0.1443-0.2532 (  4893 PWs)   bands (ev):

   -69.7592 -69.1601 -69.1599 -36.5111 -36.5067 -36.5059 -35.9136 -35.9130
   -35.9118 -35.9091 -35.9080 -35.9074 -14.7316 -14.7272 -14.7262 -14.7232
   -14.7151 -14.7121 -14.6944 -14.6931 -14.6917 -14.6859  -3.1389  -3.0099
     2.7875   3.2195   4.6944   5.3586   5.7980   6.4677   7.9530   9.2720
     9.6873  10.1351  10.6537  11.8360

     occupation numbers 
     1.0000   1.0000   1.0000   1.0000   1.0000   1.0000   1.0000   1.0000
     1.0000   1.0000   1.0000   1.0000   1.0000   1.0000   1.0000   1.0000
     1.0000   1.0000   1.0000   1.0000   1.0000   1.0000   1.0000   1.0000
     1.0000   1.0000   1.0000   1.0000   1.0000   1.0000   0.0000   0.0000
     0.0000   0.0000   0.0000   0.0000

          k =-0.5000 0.0000 0.0000 (  4869 PWs)   bands (ev):

   -69.7592 -69.1601 -69.1598 -36.5093 -36.5067 -36.5054 -35.9131 -35.9126
   -35.9108 -35.9092 -35.9064 -35.9062 -14.7315 -14.7281 -14.7257 -14.7221
   -14.7141 -14.7133 -14.6958 -14.6933 -14.6904 -14.6861  -3.2424  -2.9123
     3.3189   3.7530   4.0941   4.5720   5.5555   5.7157   8.1203  10.4831
    10.5375  11.0061  11.3656  12.2203

     occupation numbers 
     1.0000   1.0000   1.0000   1.0000   1.0000   1.0000   1.0000   1.0000
     1.0000   1.0000   1.0000   1.0000   1.0000   1.0000   1.0000   1.0000
     1.0000   1.0000   1.0000   1.0000   1.0000   1.0000   1.0000   1.0000
     1.0000   1.0000   1.0000   1.0000   1.0000   1.0000   0.0000   0.0000
     0.0000   0.0000   0.0000   0.0000

          k =-0.5000 0.0000-0.1266 (  4887 PWs)   bands (ev):

   -69.7592 -69.1601 -69.1598 -36.5106 -36.5070 -36.5055 -35.9135 -35.9129
   -35.9115 -35.9092 -35.9074 -35.9071 -14.7311 -14.7280 -14.7259 -14.7225
   -14.7142 -14.7131 -14.6955 -14.6932 -14.6904 -14.6864  -3.2136  -2.9404
     3.2748   3.4038   4.3198   4.7832   5.3153   6.1723   8.5414   9.5708
    10.5866  10.8965  11.0675  12.1329

     occupation numbers 
     1.0000   1.0000   1.0000   1.0000   1.0000   1.0000   1.0000   1.0000
     1.0000   1.0000   1.0000   1.0000   1.0000   1.0000   1.0000   1.0000
     1.0000   1.0000   1.0000   1.0000   1.0000   1.0000   1.0000   1.0000
     1.0000   1.0000   1.0000   1.0000   1.0000   1.0000   0.0000   0.0000
     0.0000   0.0000   0.0000   0.0000

          k =-0.5000 0.0000-0.2532 (  4885 PWs)   bands (ev):

   -69.7592 -69.1601 -69.1598 -36.5106 -36.5068 -36.5056 -35.9135 -35.9129
   -35.9115 -35.9091 -35.9074 -35.9069 -14.7305 -14.7278 -14.7261 -14.7235
   -14.7142 -14.7128 -14.6951 -14.6932 -14.6904 -14.6868  -3.1450  -3.0078
     3.1458   3.2215   4.2612   4.8724   5.8049   6.5595   8.7401   9.3241
     9.9888  10.6178  11.2156  11.3677

     occupation numbers 
     1.0000   1.0000   1.0000   1.0000   1.0000   1.0000   1.0000   1.0000
     1.0000   1.0000   1.0000   1.0000   1.0000   1.0000   1.0000   1.0000
     1.0000   1.0000   1.0000   1.0000   1.0000   1.0000   1.0000   1.0000
     1.0000   1.0000   1.0000   1.0000   1.0000   1.0000   0.0000   0.0000
     0.0000   0.0000   0.0000   0.0000

          k =-0.6250 0.0722 0.0000 (  4884 PWs)   bands (ev):

   -69.7592 -69.1600 -69.1599 -36.5098 -36.5066 -36.5062 -35.9131 -35.9126
   -35.9123 -35.9096 -35.9065 -35.9065 -14.7317 -14.7274 -14.7263 -14.7217
   -14.7137 -14.7131 -14.6960 -14.6916 -14.6911 -14.6863  -3.0863  -2.9600
     3.1429   3.9205   4.0080   4.6494   5.1938   5.2707   7.8267  10.4218
    11.2389  11.5749  12.3979  12.5096

     occupation numbers 
     1.0000   1.0000   1.0000   1.0000   1.0000   1.0000   1.0000   1.0000
     1.0000   1.0000   1.0000   1.0000   1.0000   1.0000   1.0000   1.0000
     1.0000   1.0000   1.0000   1.0000   1.0000   1.0000   1.0000   1.0000
     1.0000   1.0000   1.0000   1.0000   1.0000   1.0000   0.0000   0.0000
     0.0000   0.0000   0.0000   0.0000

          k =-0.6250 0.0722-0.1266 (  4902 PWs)   bands (ev):

   -69.7592 -69.1601 -69.1600 -36.5108 -36.5070 -36.5065 -35.9140 -35.9127
   -35.9125 -35.9099 -35.9076 -35.9073 -14.7312 -14.7274 -14.7266 -14.7222
   -14.7138 -14.7129 -14.6957 -14.6915 -14.6911 -14.6867  -3.0725  -2.9680
     3.1217   3.6214   3.7895   4.9948   5.2267   5.7195   8.2751   9.9864
    10.5946  10.7467  11.9999  12.3684

     occupation numbers 
     1.0000   1.0000   1.0000   1.0000   1.0000   1.0000   1.0000   1.0000
     1.0000   1.0000   1.0000   1.0000   1.0000   1.0000   1.0000   1.0000
     1.0000   1.0000   1.0000   1.0000   1.0000   1.0000   1.0000   1.0000
     1.0000   1.0000   1.0000   1.0000   1.0000   1.0000   0.0000   0.0000
     0.0000   0.0000   0.0000   0.0000

          k =-0.6250 0.0722-0.2532 (  4892 PWs)   bands (ev):

   -69.7592 -69.1600 -69.1599 -36.5107 -36.5066 -36.5064 -35.9133 -35.9126
   -35.9125 -35.9096 -35.9076 -35.9072 -14.7303 -14.7273 -14.7271 -14.7231
   -14.7138 -14.7125 -14.6952 -14.6913 -14.6911 -14.6872  -3.0410  -2.9900
     3.0502   3.2908   3.8028   4.5792   6.1449   6.4635   8.7658   9.2509
     9.5289  10.5705  11.2524  11.6981

     occupation numbers 
     1.0000   1.0000   1.0000   1.0000   1.0000   1.0000   1.0000   1.0000
     1.0000   1.0000   1.0000   1.0000   1.0000   1.0000   1.0000   1.0000
     1.0000   1.0000   1.0000   1.0000   1.0000   1.0000   1.0000   1.0000
     1.0000   1.0000   1.0000   1.0000   1.0000   1.0000   0.0000   0.0000
     0.0000   0.0000   0.0000   0.0000

          k = 0.1250 0.0722 0.1266 (  4919 PWs)   bands (ev):

   -69.7593 -69.1604 -69.1597 -36.5108 -36.5076 -36.5069 -35.9143 -35.9135
   -35.9115 -35.9099 -35.9097 -35.9072 -14.7285 -14.7283 -14.7268 -14.7250
   -14.7172 -14.7157 -14.6979 -14.6974 -14.6885 -14.6878  -3.8300  -3.1420
     3.0129   5.3007   5.7258   6.2099   6.9179   7.0984   8.8412   9.1442
    10.0043  10.3859  10.5623  11.0134

     occupation numbers 
     1.0000   1.0000   1.0000   1.0000   1.0000   1.0000   1.0000   1.0000
     1.0000   1.0000   1.0000   1.0000   1.0000   1.0000   1.0000   1.0000
     1.0000   1.0000   1.0000   1.0000   1.0000   1.0000   1.0000   1.0000
     1.0000   1.0000   1.0000   1.0000   1.0437   1.0457   0.0000   0.0000
     0.0000   0.0000   0.0000   0.0000

          k = 0.1250 0.0722 0.2532 (  4916 PWs)   bands (ev):

   -69.7593 -69.1604 -69.1597 -36.5103 -36.5076 -36.5070 -35.9140 -35.9135
   -35.9108 -35.9106 -35.9096 -35.9065 -14.7291 -14.7286 -14.7259 -14.7248
   -14.7173 -14.7153 -14.6979 -14.6975 -14.6885 -14.6878  -3.6861  -3.3354
     3.6681   4.5695   5.9634   6.3346   6.3974   6.8278   8.9595   9.3763
     9.7968  10.4198  10.5711  11.2808

     occupation numbers 
     1.0000   1.0000   1.0000   1.0000   1.0000   1.0000   1.0000   1.0000
     1.0000   1.0000   1.0000   1.0000   1.0000   1.0000   1.0000   1.0000
     1.0000   1.0000   1.0000   1.0000   1.0000   1.0000   1.0000   1.0000
     1.0000   1.0000   1.0000   1.0000   1.0000   1.0134   0.0000   0.0000
     0.0000   0.0000   0.0000   0.0000

          k = 0.2500 0.1443 0.1266 (  4907 PWs)   bands (ev):

   -69.7592 -69.1603 -69.1597 -36.5106 -36.5071 -36.5068 -35.9140 -35.9133
   -35.9116 -35.9098 -35.9086 -35.9074 -14.7298 -14.7280 -14.7269 -14.7234
   -14.7161 -14.7144 -14.6970 -14.6957 -14.6895 -14.6868  -3.6161  -3.0404
     3.2832   4.1116   4.7059   5.7592   6.7388   6.8552   8.6615   8.9363
     9.8291  10.6365  10.7345  11.6335

     occupation numbers 
     1.0000   1.0000   1.0000   1.0000   1.0000   1.0000   1.0000   1.0000
     1.0000   1.0000   1.0000   1.0000   1.0000   1.0000   1.0000   1.0000
     1.0000   1.0000   1.0000   1.0000   1.0000   1.0000   1.0000   1.0000
     1.0000   1.0000   1.0000   1.0000   1.0026   1.0202   0.0000   0.0000
     0.0000   0.0000   0.0000   0.0000

          k = 0.2500 0.1443 0.2532 (  4903 PWs)   bands (ev):

   -69.7592 -69.1603 -69.1597 -36.5108 -36.5068 -36.5064 -35.9136 -35.9126
   -35.9114 -35.9095 -35.9088 -35.9074 -14.7301 -14.7275 -14.7268 -14.7238
   -14.7163 -14.7140 -14.6969 -14.6957 -14.6896 -14.6869  -3.4898  -3.1984
     3.5485   3.8468   5.1863   5.9787   6.1059   6.4904   8.4457   9.0217
    10.0185  11.0576  11.0923  11.6528

     occupation numbers 
     1.0000   1.0000   1.0000   1.0000   1.0000   1.0000   1.0000   1.0000
     1.0000   1.0000   1.0000   1.0000   1.0000   1.0000   1.0000   1.0000
     1.0000   1.0000   1.0000   1.0000   1.0000   1.0000   1.0000   1.0000
     1.0000   1.0000   1.0000   1.0000   1.0000   1.0000   0.0000   0.0000
     0.0000   0.0000   0.0000   0.0000

          k = 0.3750 0.2165 0.1266 (  4894 PWs)   bands (ev):

   -69.7592 -69.1602 -69.1598 -36.5108 -36.5067 -36.5062 -35.9140 -35.9124
   -35.9123 -35.9089 -35.9079 -35.9073 -14.7317 -14.7275 -14.7269 -14.7221
   -14.7154 -14.7130 -14.6955 -14.6941 -14.6909 -14.6856  -3.3447  -2.9622
     3.0642   3.6116   4.2843   5.4348   6.2684   6.5938   7.9506   8.6280
     9.7592  10.5966  10.9024  11.9471

     occupation numbers 
     1.0000   1.0000   1.0000   1.0000   1.0000   1.0000   1.0000   1.0000
     1.0000   1.0000   1.0000   1.0000   1.0000   1.0000   1.0000   1.0000
     1.0000   1.0000   1.0000   1.0000   1.0000   1.0000   1.0000   1.0000
     1.0000   1.0000   1.0000   1.0000   1.0000   1.0001   0.0000   0.0000
     0.0000   0.0000   0.0000   0.0000

          k = 0.3750 0.2165 0.2532 (  4893 PWs)   bands (ev):

   -69.7592 -69.1602 -69.1598 -36.5106 -36.5068 -36.5063 -35.9143 -35.9128
   -35.9117 -35.9088 -35.9080 -35.9071 -14.7314 -14.7275 -14.7265 -14.7229
   -14.7157 -14.7124 -14.6952 -14.6940 -14.6911 -14.6858  -3.2519  -3.0630
     2.9581   3.2874   5.1443   5.6685   6.1659   6.1953   8.1014   8.4737
     9.1845  10.5293  11.4116  12.0888

     occupation numbers 
     1.0000   1.0000   1.0000   1.0000   1.0000   1.0000   1.0000   1.0000
     1.0000   1.0000   1.0000   1.0000   1.0000   1.0000   1.0000   1.0000
     1.0000   1.0000   1.0000   1.0000   1.0000   1.0000   1.0000   1.0000
     1.0000   1.0000   1.0000   1.0000   1.0000   1.0000   0.0000   0.0000
     0.0000   0.0000   0.0000   0.0000

          k = 0.3750 0.0722 0.1266 (  4886 PWs)   bands (ev):

   -69.7592 -69.1602 -69.1597 -36.5103 -36.5070 -36.5056 -35.9134 -35.9124
   -35.9113 -35.9095 -35.9078 -35.9068 -14.7306 -14.7283 -14.7261 -14.7230
   -14.7153 -14.7137 -14.6959 -14.6949 -14.6900 -14.6863  -3.4370  -2.9771
     3.3620   3.6681   4.4069   5.1859   6.1001   6.6347   8.8988   9.2220
     9.6164  10.2105  11.3191  12.0896

     occupation numbers 
     1.0000   1.0000   1.0000   1.0000   1.0000   1.0000   1.0000   1.0000
     1.0000   1.0000   1.0000   1.0000   1.0000   1.0000   1.0000   1.0000
     1.0000   1.0000   1.0000   1.0000   1.0000   1.0000   1.0000   1.0000
     1.0000   1.0000   1.0000   1.0000   1.0000   1.0002   0.0000   0.0000
     0.0000   0.0000   0.0000   0.0000

          k = 0.3750 0.0722 0.2532 (  4890 PWs)   bands (ev):

   -69.7592 -69.1602 -69.1597 -36.5106 -36.5070 -36.5057 -35.9136 -35.9125
   -35.9115 -35.9095 -35.9078 -35.9069 -14.7305 -14.7278 -14.7260 -14.7237
   -14.7154 -14.7133 -14.6956 -14.6948 -14.6901 -14.6866  -3.3310  -3.0996
     3.3158   3.4566   5.0237   5.4097   5.7737   6.4188   8.7934   9.1794
     9.8579  10.4151  11.0069  11.6553

     occupation numbers 
     1.0000   1.0000   1.0000   1.0000   1.0000   1.0000   1.0000   1.0000
     1.0000   1.0000   1.0000   1.0000   1.0000   1.0000   1.0000   1.0000
     1.0000   1.0000   1.0000   1.0000   1.0000   1.0000   1.0000   1.0000
     1.0000   1.0000   1.0000   1.0000   1.0000   1.0000   0.0000   0.0000
     0.0000   0.0000   0.0000   0.0000

          k = 0.5000 0.1443 0.1266 (  4883 PWs)   bands (ev):

   -69.7592 -69.1601 -69.1598 -36.5104 -36.5066 -36.5057 -35.9133 -35.9126
   -35.9117 -35.9090 -35.9073 -35.9070 -14.7318 -14.7277 -14.7264 -14.7220
   -14.7148 -14.7126 -14.6950 -14.6933 -14.6912 -14.6856  -3.2016  -2.9504
     2.9311   3.5223   4.3700   5.0284   5.7792   6.0602   8.3536   9.2100
     9.6961  10.2846  11.5759  12.1851

     occupation numbers 
     1.0000   1.0000   1.0000   1.0000   1.0000   1.0000   1.0000   1.0000
     1.0000   1.0000   1.0000   1.0000   1.0000   1.0000   1.0000   1.0000
     1.0000   1.0000   1.0000   1.0000   1.0000   1.0000   1.0000   1.0000
     1.0000   1.0000   1.0000   1.0000   1.0000   1.0000   0.0000   0.0000
     0.0000   0.0000   0.0000   0.0000

          k = 0.5000 0.1443 0.2532 (  4893 PWs)   bands (ev):

   -69.7592 -69.1601 -69.1599 -36.5111 -36.5067 -36.5059 -35.9136 -35.9125
   -35.9121 -35.9095 -35.9078 -35.9074 -14.7313 -14.7276 -14.7263 -14.7229
   -14.7151 -14.7121 -14.6946 -14.6932 -14.6913 -14.6860  -3.1354  -3.0137
     2.8285   3.1790   4.6708   5.3560   5.7903   6.4689   8.3344   8.8127
     9.5934  10.3672  10.4880  12.0710

     occupation numbers 
     1.0000   1.0000   1.0000   1.0000   1.0000   1.0000   1.0000   1.0000
     1.0000   1.0000   1.0000   1.0000   1.0000   1.0000   1.0000   1.0000
     1.0000   1.0000   1.0000   1.0000   1.0000   1.0000   1.0000   1.0000
     1.0000   1.0000   1.0000   1.0000   1.0000   1.0000   0.0000   0.0000
     0.0000   0.0000   0.0000   0.0000

     the Fermi energy is     7.3124 ev

!    total energy              =    -690.56431555 Ry
     estimated scf accuracy    <          4.7E-10 Ry
     smearing contrib. (-TS)   =       0.00065284 Ry
     internal energy E=F+TS    =    -690.56496839 Ry

     The total energy is F=E-TS. E is the sum of the following terms:
     one-electron contribution =    -449.17351721 Ry
     hartree contribution      =     234.18379451 Ry
     xc contribution           =    -117.73409644 Ry
     ewald contribution        =    -357.84114925 Ry

     convergence has been achieved in  10 iterations

     Writing output data file ../out/m2.save/

     init_run     :     51.61s CPU     35.95s WALL (       1 calls)
     electrons    :   2725.97s CPU   2009.71s WALL (       1 calls)

     Called by init_run:
     wfcinit      :     50.79s CPU     35.28s WALL (       1 calls)
     wfcinit:atom :      0.04s CPU      0.02s WALL (      40 calls)
     wfcinit:wfcr :     50.68s CPU     35.21s WALL (      40 calls)
     potinit      :      0.11s CPU      0.11s WALL (       1 calls)
     hinit0       :      0.25s CPU      0.25s WALL (       1 calls)

     Called by electrons:
     c_bands      :   2613.70s CPU   1927.93s WALL (      11 calls)
     sum_band     :    107.11s CPU     78.58s WALL (      11 calls)
     v_of_rho     :      0.27s CPU      0.24s WALL (      11 calls)
     v_h          :      0.02s CPU      0.02s WALL (      11 calls)
     v_xc         :      0.25s CPU      0.23s WALL (      11 calls)
     newd         :      4.94s CPU      2.96s WALL (      11 calls)
     mix_rho      :      0.03s CPU      0.04s WALL (      11 calls)

     Called by c_bands:
     init_us_2    :      1.09s CPU      0.72s WALL (     920 calls)
     cegterg      :   2564.21s CPU   1894.80s WALL (     440 calls)

     Called by sum_band:
     sum_band:wei :      0.02s CPU      0.01s WALL (      11 calls)
     sum_band:loo :    102.45s CPU     75.42s WALL (      11 calls)
     sum_band:buf :      0.06s CPU      0.05s WALL (     440 calls)
     sum_band:ini :      0.44s CPU      0.32s WALL (     440 calls)
     sum_band:cal :     86.67s CPU     64.34s WALL (     440 calls)
     sum_band:bec :      0.01s CPU      0.01s WALL (     440 calls)
     addusdens    :      4.41s CPU      2.94s WALL (      11 calls)
     addusd:skk   :      0.01s CPU      0.01s WALL (      22 calls)
     addusd:dgemm :      2.02s CPU      1.36s WALL (      22 calls)
     addusd:qvan2 :      2.18s CPU      1.37s WALL (      22 calls)

     Called by *egterg:
     cdiaghg      :    494.02s CPU    414.12s WALL (    2006 calls)
     cegterg:over :    579.10s CPU    400.93s WALL (    1606 calls)
     cegterg:upda :    383.14s CPU    283.10s WALL (    1606 calls)
     cegterg:last :    328.14s CPU    241.42s WALL (     882 calls)
     cdiaghg:chol :     79.57s CPU     60.31s WALL (    2006 calls)
     cdiaghg:inve :     13.31s CPU     10.17s WALL (    2006 calls)
     cdiaghg:para :    264.09s CPU    206.52s WALL (    4012 calls)
     h_psi        :    517.07s CPU    379.03s WALL (    2086 calls)
     s_psi        :     13.02s CPU     10.46s WALL (    2086 calls)
     g_psi        :      0.34s CPU      0.20s WALL (    1606 calls)

     Called by h_psi:
     h_psi:calbec :    338.07s CPU    255.67s WALL (    2086 calls)
     vloc_psi     :    115.71s CPU     69.72s WALL (    2086 calls)
     add_vuspsi   :     62.94s CPU     53.37s WALL (    2086 calls)

     General routines
     calbec       :    424.70s CPU    319.78s WALL (    2526 calls)
     fft          :      0.15s CPU      0.16s WALL (     142 calls)
     ffts         :      0.05s CPU      0.05s WALL (      22 calls)
     fftw         :    125.51s CPU     76.44s WALL (   95888 calls)
     interpolate  :      0.01s CPU      0.01s WALL (      11 calls)

     Parallel routines
     fft_scatt_xy :      4.75s CPU      2.99s WALL (   96052 calls)
     fft_scatt_yz :    101.13s CPU     60.75s WALL (   96052 calls)

     PWSCF        :  46m17.78s CPU  34m 8.20s WALL


   This run was terminated on:   8:29:56  26Oct2023            

=------------------------------------------------------------------------------=
   JOB DONE.
=------------------------------------------------------------------------------=
