
     Program BANDS v.7.1 starts on  2Oct2023 at 12:19:12 

     This program is part of the open-source Quantum ESPRESSO suite
     for quantum simulation of materials; please cite
         "P. Giannozzi et al., J. Phys.:Condens. Matter 21 395502 (2009);
         "P. Giannozzi et al., J. Phys.:Condens. Matter 29 465901 (2017);
         "P. Giannozzi et al., J. Chem. Phys. 152 154105 (2020);
          URL http://www.quantum-espresso.org", 
     in publications or presentations arising from this work. More details at
     http://www.quantum-espresso.org/quote

     Parallel version (MPI & OpenMP), running on      60 processor cores
     Number of MPI processes:                30
     Threads/MPI process:                     2

     MPI processes distributed on     5 nodes
     R & G space division:  proc/nbgrp/npool/nimage =      30
     13145 MiB available memory on the printing compute node when the environment starts


     Reading xml data from directory:

     ./out/TiS.save/

     IMPORTANT: XC functional enforced from input :
     Exchange-correlation= PBE
                           (   1   4   3   4   0   0   0)
     Any further DFT definition will be discarded
     Please, verify this is what you really want


     Parallelization info
     --------------------
     sticks:   dense  smooth     PW     G-vecs:    dense   smooth      PW
     Min          24      12      4                 1094      386      66
     Max          25      13      5                 1107      395      72
     Sum         745     379    121                33091    11681    2079

     Using Slab Decomposition


     Check: negative core charge=   -0.000005

     negative rho (up, down):  7.819E-04 7.819E-04
     Reading collected, re-writing distributed wavefunctions
     high-symmetry point:  0.5000 0.2887 0.0000   x coordinate   0.0000
     high-symmetry point:  0.3333 0.5773 0.0000   x coordinate   0.3333
     high-symmetry point:  0.0000 0.0000 0.0000   x coordinate   0.9999
     high-symmetry point:  0.5000 0.2887 0.0000   x coordinate   1.5773
     high-symmetry point:  0.0000 0.0000 0.0000   x coordinate   2.1546
     high-symmetry point:  0.0000 0.0000 0.2504   x coordinate   2.4050
     high-symmetry point:  0.5000 0.2887 0.2504   x coordinate   2.9824
     high-symmetry point:  0.3333 0.5773 0.2504   x coordinate   3.3157

     Plottable bands (eV) written to file TiS.bands.gnu
     Bands written to file TiS.bands

 **************************************************************************

                    xk=(   0.50000,   0.28868,   0.00000  )

     point group C_2h (2/m) 
     there are  4 classes
     the character table:

       E     C2    i     s_h  
A_g    1.00  1.00  1.00  1.00
B_g    1.00 -1.00  1.00 -1.00
A_u    1.00  1.00 -1.00 -1.00
B_u    1.00 -1.00 -1.00  1.00

     the symmetry operations in each class and the name of the first element:

     E        1
                                                                 
     C2       2
                                                                 
     i        3
                                                                 
     s_h      4
                                                                 

     Band symmetry, C_2h (2/m)  point group:

     e(  1 -  1) =    -44.21901  eV     1   --> A_g            
     e(  2 -  2) =    -44.20917  eV     1   --> B_g            
     e(  3 -  3) =    -20.60996  eV     1   --> B_u            
     e(  4 -  4) =    -20.59473  eV     1   --> B_u            
     e(  5 -  5) =    -20.58087  eV     1   --> A_u            
     e(  6 -  6) =    -20.46890  eV     1   --> A_u            
     e(  7 -  7) =    -20.46682  eV     1   --> B_u            
     e(  8 -  8) =    -20.45220  eV     1   --> A_u            
     e(  9 -  9) =     -0.82640  eV     1   --> A_g            
     e( 10 - 10) =     -0.49617  eV     1   --> B_u            
     e( 11 - 11) =      5.66209  eV     1   --> A_g            
     e( 12 - 12) =      7.01771  eV     1   --> B_u            
     e( 13 - 13) =      7.52652  eV     1   --> B_g            
     e( 14 - 14) =      8.28961  eV     1   --> A_u            
     e( 15 - 15) =      8.91993  eV     1   --> A_g            
     e( 16 - 16) =     10.16707  eV     1   --> B_u            
     e( 17 - 17) =     11.23139  eV     1   --> A_g            
     e( 18 - 18) =     12.22891  eV     1   --> B_g            
     e( 19 - 19) =     13.76602  eV     1   --> B_g            
     e( 20 - 20) =     14.91705  eV     1   --> A_g            
     e( 21 - 21) =     15.04775  eV     1   --> B_g            
     e( 22 - 22) =     15.12322  eV     1   --> A_g            
     e( 23 - 23) =     15.14405  eV     1   --> B_g            
     e( 24 - 24) =     15.76027  eV     1   --> A_g            
     e( 25 - 25) =     16.83709  eV     1   --> B_g            
     e( 26 - 26) =     17.08622  eV     1   --> A_g            
     e( 27 - 27) =     17.09612  eV     1   --> B_u            
     e( 28 - 28) =     18.61972  eV     1   --> A_u            
     e( 29 - 29) =     19.42500  eV     1   --> B_g            
     e( 30 - 30) =     19.52462  eV     1   --> B_u            
     e( 31 - 31) =     20.14324  eV     1   --> A_g            
     e( 32 - 32) =     20.62465  eV     1   --> A_u            
     e( 33 - 33) =     23.81636  eV     1   --> A_g            
     e( 34 - 34) =     26.84922  eV     1   --> A_u            
     e( 35 - 35) =     26.90733  eV     1   --> B_u            
     e( 36 - 36) =     27.70269  eV     1   --> B_g            
     e( 37 - 37) =     28.40188  eV     1   --> B_u            
     e( 38 - 38) =     28.44925  eV     1   --> A_g            
     e( 39 - 39) =     28.56361  eV     1   --> B_g            
     e( 40 - 40) =     28.73708  eV     1   --> A_g            

 **************************************************************************

 **************************************************************************

                    xk=(   0.49667,   0.29445,   0.00000  )

     point group C_s (m)    
     there are  2 classes
     the character table:

       E     s    
A'     1.00  1.00
A''    1.00 -1.00

     the symmetry operations in each class and the name of the first element:

     E        1
                                                                 
     s        2
                                                                 

     Band symmetry, C_s (m)     point group:

     e(  1 -  1) =    -44.21900  eV     1   --> A'             
     e(  2 -  2) =    -44.20917  eV     1   --> A''            
     e(  3 -  3) =    -20.60993  eV     1   --> A'             
     e(  4 -  4) =    -20.59473  eV     1   --> A'             
     e(  5 -  5) =    -20.58084  eV     1   --> A''            
     e(  6 -  6) =    -20.46889  eV     1   --> A''            
     e(  7 -  7) =    -20.46686  eV     1   --> A'             
     e(  8 -  8) =    -20.45225  eV     1   --> A''            
     e(  9 -  9) =     -0.82615  eV     1   --> A'             
     e( 10 - 10) =     -0.49613  eV     1   --> A'             
     e( 11 - 11) =      5.66260  eV     1   --> A'             
     e( 12 - 12) =      7.01775  eV     1   --> A'             
     e( 13 - 13) =      7.52687  eV     1   --> A''            
     e( 14 - 14) =      8.28939  eV     1   --> A''            
     e( 15 - 15) =      8.91930  eV     1   --> A'             
     e( 16 - 16) =     10.16064  eV     1   --> A'             
     e( 17 - 17) =     11.23709  eV     1   --> A'             
     e( 18 - 18) =     12.22941  eV     1   --> A''            
     e( 19 - 19) =     13.76584  eV     1   --> A''            
     e( 20 - 20) =     14.91597  eV     1   --> A'             
     e( 21 - 21) =     15.04761  eV     1   --> A''            
     e( 22 - 22) =     15.12293  eV     1   --> A'             
     e( 23 - 23) =     15.14400  eV     1   --> A''            
     e( 24 - 24) =     15.76067  eV     1   --> A'             
     e( 25 - 25) =     16.83682  eV     1   --> A''            
     e( 26 - 26) =     17.02776  eV     1   --> A'             
     e( 27 - 27) =     17.15691  eV     1   --> A'             
     e( 28 - 28) =     18.62148  eV     1   --> A''            
     e( 29 - 29) =     19.42121  eV     1   --> A''            
     e( 30 - 30) =     19.52625  eV     1   --> A'             
     e( 31 - 31) =     20.14493  eV     1   --> A'             
     e( 32 - 32) =     20.62674  eV     1   --> A''            
     e( 33 - 33) =     23.81438  eV     1   --> A'             
     e( 34 - 34) =     26.83545  eV     1   --> A''            
     e( 35 - 35) =     26.90706  eV     1   --> A'             
     e( 36 - 36) =     27.71597  eV     1   --> A''            
     e( 37 - 37) =     28.36250  eV     1   --> A'             
     e( 38 - 38) =     28.44332  eV     1   --> A'             
     e( 39 - 39) =     28.56627  eV     1   --> A''            
     e( 40 - 40) =     28.77619  eV     1   --> A'             

 **************************************************************************

 **************************************************************************

                    xk=(   0.49333,   0.30022,   0.00000  )

     Band symmetry, C_s (m)     point group:

     e(  1 -  1) =    -44.21899  eV     1   --> A'             
     e(  2 -  2) =    -44.20916  eV     1   --> A''            
     e(  3 -  3) =    -20.60985  eV     1   --> A'             
     e(  4 -  4) =    -20.59471  eV     1   --> A'             
     e(  5 -  5) =    -20.58077  eV     1   --> A''            
     e(  6 -  6) =    -20.46888  eV     1   --> A''            
     e(  7 -  7) =    -20.46701  eV     1   --> A'             
     e(  8 -  8) =    -20.45239  eV     1   --> A''            
     e(  9 -  9) =     -0.82540  eV     1   --> A'             
     e( 10 - 10) =     -0.49599  eV     1   --> A'             
     e( 11 - 11) =      5.66413  eV     1   --> A'             
     e( 12 - 12) =      7.01785  eV     1   --> A'             
     e( 13 - 13) =      7.52792  eV     1   --> A''            
     e( 14 - 14) =      8.28874  eV     1   --> A''            
     e( 15 - 15) =      8.91742  eV     1   --> A'             
     e( 16 - 16) =     10.14173  eV     1   --> A'             
     e( 17 - 17) =     11.25379  eV     1   --> A'             
     e( 18 - 18) =     12.23089  eV     1   --> A''            
     e( 19 - 19) =     13.76525  eV     1   --> A''            
     e( 20 - 20) =     14.91272  eV     1   --> A'             
     e( 21 - 21) =     15.04721  eV     1   --> A''            
     e( 22 - 22) =     15.12204  eV     1   --> A'             
     e( 23 - 23) =     15.14386  eV     1   --> A''            
     e( 24 - 24) =     15.76185  eV     1   --> A'             
     e( 25 - 25) =     16.83603  eV     1   --> A''            
     e( 26 - 26) =     16.96701  eV     1   --> A'             
     e( 27 - 27) =     17.22464  eV     1   --> A'             
     e( 28 - 28) =     18.62676  eV     1   --> A''            
     e( 29 - 29) =     19.40994  eV     1   --> A''            
     e( 30 - 30) =     19.53105  eV     1   --> A'             
     e( 31 - 31) =     20.14999  eV     1   --> A'             
     e( 32 - 32) =     20.63285  eV     1   --> A''            
     e( 33 - 33) =     23.80842  eV     1   --> A'             
     e( 34 - 34) =     26.79644  eV     1   --> A''            
     e( 35 - 35) =     26.90610  eV     1   --> A'             
     e( 36 - 36) =     27.75348  eV     1   --> A''            
     e( 37 - 37) =     28.27429  eV     1   --> A'             
     e( 38 - 38) =     28.42607  eV     1   --> A'             
     e( 39 - 39) =     28.57425  eV     1   --> A''            
     e( 40 - 40) =     28.86352  eV     1   --> A'             

 **************************************************************************

 **************************************************************************

                    xk=(   0.49000,   0.30599,   0.00000  )

     Band symmetry, C_s (m)     point group:

     e(  1 -  1) =    -44.21898  eV     1   --> A'             
     e(  2 -  2) =    -44.20915  eV     1   --> A''            
     e(  3 -  3) =    -20.60973  eV     1   --> A'             
     e(  4 -  4) =    -20.59468  eV     1   --> A'             
     e(  5 -  5) =    -20.58065  eV     1   --> A''            
     e(  6 -  6) =    -20.46887  eV     1   --> A''            
     e(  7 -  7) =    -20.46726  eV     1   --> A'             
     e(  8 -  8) =    -20.45263  eV     1   --> A''            
     e(  9 -  9) =     -0.82416  eV     1   --> A'             
     e( 10 - 10) =     -0.49577  eV     1   --> A'             
     e( 11 - 11) =      5.66667  eV     1   --> A'             
     e( 12 - 12) =      7.01802  eV     1   --> A'             
     e( 13 - 13) =      7.52966  eV     1   --> A''            
     e( 14 - 14) =      8.28766  eV     1   --> A''            
     e( 15 - 15) =      8.91429  eV     1   --> A'             
     e( 16 - 16) =     10.11145  eV     1   --> A'             
     e( 17 - 17) =     11.28038  eV     1   --> A'             
     e( 18 - 18) =     12.23337  eV     1   --> A''            
     e( 19 - 19) =     13.76425  eV     1   --> A''            
     e( 20 - 20) =     14.90730  eV     1   --> A'             
     e( 21 - 21) =     15.04657  eV     1   --> A''            
     e( 22 - 22) =     15.12055  eV     1   --> A'             
     e( 23 - 23) =     15.14363  eV     1   --> A''            
     e( 24 - 24) =     15.76383  eV     1   --> A'             
     e( 25 - 25) =     16.83471  eV     1   --> A''            
     e( 26 - 26) =     16.90859  eV     1   --> A'             
     e( 27 - 27) =     17.29464  eV     1   --> A'             
     e( 28 - 28) =     18.63552  eV     1   --> A''            
     e( 29 - 29) =     19.39146  eV     1   --> A''            
     e( 30 - 30) =     19.53904  eV     1   --> A'             
     e( 31 - 31) =     20.15842  eV     1   --> A'             
     e( 32 - 32) =     20.64274  eV     1   --> A''            
     e( 33 - 33) =     23.79852  eV     1   --> A'             
     e( 34 - 34) =     26.73752  eV     1   --> A''            
     e( 35 - 35) =     26.90429  eV     1   --> A'             
     e( 36 - 36) =     27.80987  eV     1   --> A''            
     e( 37 - 37) =     28.16818  eV     1   --> A'             
     e( 38 - 38) =     28.39880  eV     1   --> A'             
     e( 39 - 39) =     28.58753  eV     1   --> A''            
     e( 40 - 40) =     28.96802  eV     1   --> A'             

 **************************************************************************

 **************************************************************************

                    xk=(   0.48666,   0.31176,   0.00000  )

     Band symmetry, C_s (m)     point group:

     e(  1 -  1) =    -44.21897  eV     1   --> A'             
     e(  2 -  2) =    -44.20915  eV     1   --> A''            
     e(  3 -  3) =    -20.60955  eV     1   --> A'             
     e(  4 -  4) =    -20.59463  eV     1   --> A'             
     e(  5 -  5) =    -20.58049  eV     1   --> A''            
     e(  6 -  6) =    -20.46885  eV     1   --> A''            
     e(  7 -  7) =    -20.46762  eV     1   --> A'             
     e(  8 -  8) =    -20.45296  eV     1   --> A''            
     e(  9 -  9) =     -0.82242  eV     1   --> A'             
     e( 10 - 10) =     -0.49545  eV     1   --> A'             
     e( 11 - 11) =      5.67022  eV     1   --> A'             
     e( 12 - 12) =      7.01825  eV     1   --> A'             
     e( 13 - 13) =      7.53209  eV     1   --> A''            
     e( 14 - 14) =      8.28614  eV     1   --> A''            
     e( 15 - 15) =      8.90993  eV     1   --> A'             
     e( 16 - 16) =     10.07131  eV     1   --> A'             
     e( 17 - 17) =     11.31538  eV     1   --> A'             
     e( 18 - 18) =     12.23683  eV     1   --> A''            
     e( 19 - 19) =     13.76283  eV     1   --> A''            
     e( 20 - 20) =     14.89976  eV     1   --> A'             
     e( 21 - 21) =     15.04572  eV     1   --> A''            
     e( 22 - 22) =     15.11844  eV     1   --> A'             
     e( 23 - 23) =     15.14330  eV     1   --> A''            
     e( 24 - 24) =     15.76658  eV     1   --> A'             
     e( 25 - 25) =     16.83286  eV     1   --> A''            
     e( 26 - 26) =     16.85257  eV     1   --> A'             
     e( 27 - 27) =     17.36680  eV     1   --> A'             
     e( 28 - 28) =     18.64773  eV     1   --> A''            
     e( 29 - 29) =     19.36623  eV     1   --> A''            
     e( 30 - 30) =     19.55023  eV     1   --> A'             
     e( 31 - 31) =     20.17022  eV     1   --> A'             
     e( 32 - 32) =     20.65598  eV     1   --> A''            
     e( 33 - 33) =     23.78475  eV     1   --> A'             
     e( 34 - 34) =     26.66429  eV     1   --> A''            
     e( 35 - 35) =     26.90144  eV     1   --> A'             
     e( 36 - 36) =     27.87956  eV     1   --> A''            
     e( 37 - 37) =     28.05511  eV     1   --> A'             
     e( 38 - 38) =     28.36327  eV     1   --> A'             
     e( 39 - 39) =     28.60607  eV     1   --> A''            
     e( 40 - 40) =     29.03233  eV     1   --> A'             

 **************************************************************************

 **************************************************************************

                    xk=(   0.48333,   0.31754,   0.00000  )

     Band symmetry, C_s (m)     point group:

     e(  1 -  1) =    -44.21895  eV     1   --> A'             
     e(  2 -  2) =    -44.20913  eV     1   --> A''            
     e(  3 -  3) =    -20.60933  eV     1   --> A'             
     e(  4 -  4) =    -20.59458  eV     1   --> A'             
     e(  5 -  5) =    -20.58028  eV     1   --> A''            
     e(  6 -  6) =    -20.46883  eV     1   --> A''            
     e(  7 -  7) =    -20.46808  eV     1   --> A'             
     e(  8 -  8) =    -20.45338  eV     1   --> A''            
     e(  9 -  9) =     -0.82019  eV     1   --> A'             
     e( 10 - 10) =     -0.49506  eV     1   --> A'             
     e( 11 - 11) =      5.67479  eV     1   --> A'             
     e( 12 - 12) =      7.01855  eV     1   --> A'             
     e( 13 - 13) =      7.53520  eV     1   --> A''            
     e( 14 - 14) =      8.28421  eV     1   --> A''            
     e( 15 - 15) =      8.90436  eV     1   --> A'             
     e( 16 - 16) =     10.02293  eV     1   --> A'             
     e( 17 - 17) =     11.35722  eV     1   --> A'             
     e( 18 - 18) =     12.24128  eV     1   --> A''            
     e( 19 - 19) =     13.76096  eV     1   --> A''            
     e( 20 - 20) =     14.89014  eV     1   --> A'             
     e( 21 - 21) =     15.04475  eV     1   --> A''            
     e( 22 - 22) =     15.11567  eV     1   --> A'             
     e( 23 - 23) =     15.14287  eV     1   --> A''            
     e( 24 - 24) =     15.77012  eV     1   --> A'             
     e( 25 - 25) =     16.79899  eV     1   --> A'             
     e( 26 - 26) =     16.83048  eV     1   --> A''            
     e( 27 - 27) =     17.44103  eV     1   --> A'             
     e( 28 - 28) =     18.66335  eV     1   --> A''            
     e( 29 - 29) =     19.33480  eV     1   --> A''            
     e( 30 - 30) =     19.56463  eV     1   --> A'             
     e( 31 - 31) =     20.18539  eV     1   --> A'             
     e( 32 - 32) =     20.67210  eV     1   --> A''            
     e( 33 - 33) =     23.76721  eV     1   --> A'             
     e( 34 - 34) =     26.58115  eV     1   --> A''            
     e( 35 - 35) =     26.89733  eV     1   --> A'             
     e( 36 - 36) =     27.93896  eV     1   --> A'             
     e( 37 - 37) =     27.95815  eV     1   --> A''            
     e( 38 - 38) =     28.32138  eV     1   --> A'             
     e( 39 - 39) =     28.62982  eV     1   --> A''            
     e( 40 - 40) =     29.04188  eV     1   --> A'             

 **************************************************************************

 **************************************************************************

                    xk=(   0.48000,   0.32331,   0.00000  )

     Band symmetry, C_s (m)     point group:

     e(  1 -  1) =    -44.21892  eV     1   --> A'             
     e(  2 -  2) =    -44.20911  eV     1   --> A''            
     e(  3 -  3) =    -20.60905  eV     1   --> A'             
     e(  4 -  4) =    -20.59451  eV     1   --> A'             
     e(  5 -  5) =    -20.58002  eV     1   --> A''            
     e(  6 -  6) =    -20.46879  eV     1   --> A''            
     e(  7 -  7) =    -20.46864  eV     1   --> A'             
     e(  8 -  8) =    -20.45389  eV     1   --> A''            
     e(  9 -  9) =     -0.81747  eV     1   --> A'             
     e( 10 - 10) =     -0.49457  eV     1   --> A'             
     e( 11 - 11) =      5.68037  eV     1   --> A'             
     e( 12 - 12) =      7.01891  eV     1   --> A'             
     e( 13 - 13) =      7.53900  eV     1   --> A''            
     e( 14 - 14) =      8.28186  eV     1   --> A''            
     e( 15 - 15) =      8.89760  eV     1   --> A'             
     e( 16 - 16) =      9.96780  eV     1   --> A'             
     e( 17 - 17) =     11.40442  eV     1   --> A'             
     e( 18 - 18) =     12.24670  eV     1   --> A''            
     e( 19 - 19) =     13.75862  eV     1   --> A''            
     e( 20 - 20) =     14.87852  eV     1   --> A'             
     e( 21 - 21) =     15.04374  eV     1   --> A''            
     e( 22 - 22) =     15.11223  eV     1   --> A'             
     e( 23 - 23) =     15.14235  eV     1   --> A''            
     e( 24 - 24) =     15.77444  eV     1   --> A'             
     e( 25 - 25) =     16.74785  eV     1   --> A'             
     e( 26 - 26) =     16.82756  eV     1   --> A''            
     e( 27 - 27) =     17.51727  eV     1   --> A'             
     e( 28 - 28) =     18.68234  eV     1   --> A''            
     e( 29 - 29) =     19.29776  eV     1   --> A''            
     e( 30 - 30) =     19.58221  eV     1   --> A'             
     e( 31 - 31) =     20.20393  eV     1   --> A'             
     e( 32 - 32) =     20.69055  eV     1   --> A''            
     e( 33 - 33) =     23.74601  eV     1   --> A'             
     e( 34 - 34) =     26.49119  eV     1   --> A''            
     e( 35 - 35) =     26.89155  eV     1   --> A'             
     e( 36 - 36) =     27.82124  eV     1   --> A'             
     e( 37 - 37) =     28.04261  eV     1   --> A''            
     e( 38 - 38) =     28.27480  eV     1   --> A'             
     e( 39 - 39) =     28.65871  eV     1   --> A''            
     e( 40 - 40) =     29.04974  eV     1   --> A'             

 **************************************************************************

 **************************************************************************

                    xk=(   0.47666,   0.32908,   0.00000  )

     Band symmetry, C_s (m)     point group:

     e(  1 -  1) =    -44.21889  eV     1   --> A'             
     e(  2 -  2) =    -44.20909  eV     1   --> A''            
     e(  3 -  3) =    -20.60873  eV     1   --> A'             
     e(  4 -  4) =    -20.59444  eV     1   --> A'             
     e(  5 -  5) =    -20.57971  eV     1   --> A''            
     e(  6 -  6) =    -20.46930  eV     1   --> A'             
     e(  7 -  7) =    -20.46876  eV     1   --> A''            
     e(  8 -  8) =    -20.45450  eV     1   --> A''            
     e(  9 -  9) =     -0.81428  eV     1   --> A'             
     e( 10 - 10) =     -0.49401  eV     1   --> A'             
     e( 11 - 11) =      5.68696  eV     1   --> A'             
     e( 12 - 12) =      7.01933  eV     1   --> A'             
     e( 13 - 13) =      7.54346  eV     1   --> A''            
     e( 14 - 14) =      8.27910  eV     1   --> A''            
     e( 15 - 15) =      8.88966  eV     1   --> A'             
     e( 16 - 16) =      9.90720  eV     1   --> A'             
     e( 17 - 17) =     11.45574  eV     1   --> A'             
     e( 18 - 18) =     12.25310  eV     1   --> A''            
     e( 19 - 19) =     13.75574  eV     1   --> A''            
     e( 20 - 20) =     14.86496  eV     1   --> A'             
     e( 21 - 21) =     15.04275  eV     1   --> A''            
     e( 22 - 22) =     15.10807  eV     1   --> A'             
     e( 23 - 23) =     15.14173  eV     1   --> A''            
     e( 24 - 24) =     15.77951  eV     1   --> A'             
     e( 25 - 25) =     16.69912  eV     1   --> A'             
     e( 26 - 26) =     16.82409  eV     1   --> A''            
     e( 27 - 27) =     17.59538  eV     1   --> A'             
     e( 28 - 28) =     18.70459  eV     1   --> A''            
     e( 29 - 29) =     19.25572  eV     1   --> A''            
     e( 30 - 30) =     19.60299  eV     1   --> A'             
     e( 31 - 31) =     20.22580  eV     1   --> A'             
     e( 32 - 32) =     20.71077  eV     1   --> A''            
     e( 33 - 33) =     23.72126  eV     1   --> A'             
     e( 34 - 34) =     26.39642  eV     1   --> A''            
     e( 35 - 35) =     26.88365  eV     1   --> A'             
     e( 36 - 36) =     27.70269  eV     1   --> A'             
     e( 37 - 37) =     28.13072  eV     1   --> A''            
     e( 38 - 38) =     28.22508  eV     1   --> A'             
     e( 39 - 39) =     28.69268  eV     1   --> A''            
     e( 40 - 40) =     29.05485  eV     1   --> A'             

 **************************************************************************

 **************************************************************************

                    xk=(   0.47333,   0.33485,   0.00000  )

     Band symmetry, C_s (m)     point group:

     e(  1 -  1) =    -44.21886  eV     1   --> A'             
     e(  2 -  2) =    -44.20906  eV     1   --> A''            
     e(  3 -  3) =    -20.60835  eV     1   --> A'             
     e(  4 -  4) =    -20.59434  eV     1   --> A'             
     e(  5 -  5) =    -20.57936  eV     1   --> A''            
     e(  6 -  6) =    -20.47005  eV     1   --> A'             
     e(  7 -  7) =    -20.46871  eV     1   --> A''            
     e(  8 -  8) =    -20.45519  eV     1   --> A''            
     e(  9 -  9) =     -0.81061  eV     1   --> A'             
     e( 10 - 10) =     -0.49336  eV     1   --> A'             
     e( 11 - 11) =      5.69455  eV     1   --> A'             
     e( 12 - 12) =      7.01982  eV     1   --> A'             
     e( 13 - 13) =      7.54859  eV     1   --> A''            
     e( 14 - 14) =      8.27594  eV     1   --> A''            
     e( 15 - 15) =      8.88061  eV     1   --> A'             
     e( 16 - 16) =      9.84222  eV     1   --> A'             
     e( 17 - 17) =     11.51016  eV     1   --> A'             
     e( 18 - 18) =     12.26046  eV     1   --> A''            
     e( 19 - 19) =     13.75233  eV     1   --> A''            
     e( 20 - 20) =     14.84954  eV     1   --> A'             
     e( 21 - 21) =     15.04191  eV     1   --> A''            
     e( 22 - 22) =     15.10316  eV     1   --> A'             
     e( 23 - 23) =     15.14100  eV     1   --> A''            
     e( 24 - 24) =     15.78533  eV     1   --> A'             
     e( 25 - 25) =     16.65278  eV     1   --> A'             
     e( 26 - 26) =     16.82009  eV     1   --> A''            
     e( 27 - 27) =     17.67528  eV     1   --> A'             
     e( 28 - 28) =     18.73008  eV     1   --> A''            
     e( 29 - 29) =     19.20929  eV     1   --> A''            
     e( 30 - 30) =     19.62696  eV     1   --> A'             
     e( 31 - 31) =     20.25102  eV     1   --> A'             
     e( 32 - 32) =     20.73228  eV     1   --> A''            
     e( 33 - 33) =     23.69312  eV     1   --> A'             
     e( 34 - 34) =     26.29827  eV     1   --> A''            
     e( 35 - 35) =     26.87312  eV     1   --> A'             
     e( 36 - 36) =     27.58375  eV     1   --> A'             
     e( 37 - 37) =     28.17363  eV     1   --> A'             
     e( 38 - 38) =     28.22132  eV     1   --> A''            
     e( 39 - 39) =     28.73164  eV     1   --> A''            
     e( 40 - 40) =     29.05653  eV     1   --> A'             

 **************************************************************************

 **************************************************************************

                    xk=(   0.46999,   0.34063,   0.00000  )

     Band symmetry, C_s (m)     point group:

     e(  1 -  1) =    -44.21882  eV     1   --> A'             
     e(  2 -  2) =    -44.20903  eV     1   --> A''            
     e(  3 -  3) =    -20.60794  eV     1   --> A'             
     e(  4 -  4) =    -20.59424  eV     1   --> A'             
     e(  5 -  5) =    -20.57896  eV     1   --> A''            
     e(  6 -  6) =    -20.47090  eV     1   --> A'             
     e(  7 -  7) =    -20.46867  eV     1   --> A''            
     e(  8 -  8) =    -20.45597  eV     1   --> A''            
     e(  9 -  9) =     -0.80648  eV     1   --> A'             
     e( 10 - 10) =     -0.49264  eV     1   --> A'             
     e( 11 - 11) =      5.70315  eV     1   --> A'             
     e( 12 - 12) =      7.02035  eV     1   --> A'             
     e( 13 - 13) =      7.55436  eV     1   --> A''            
     e( 14 - 14) =      8.27238  eV     1   --> A''            
     e( 15 - 15) =      8.87046  eV     1   --> A'             
     e( 16 - 16) =      9.77370  eV     1   --> A'             
     e( 17 - 17) =     11.56687  eV     1   --> A'             
     e( 18 - 18) =     12.26877  eV     1   --> A''            
     e( 19 - 19) =     13.74829  eV     1   --> A''            
     e( 20 - 20) =     14.83235  eV     1   --> A'             
     e( 21 - 21) =     15.04132  eV     1   --> A''            
     e( 22 - 22) =     15.09745  eV     1   --> A'             
     e( 23 - 23) =     15.14018  eV     1   --> A''            
     e( 24 - 24) =     15.79188  eV     1   --> A'             
     e( 25 - 25) =     16.60881  eV     1   --> A'             
     e( 26 - 26) =     16.81553  eV     1   --> A''            
     e( 27 - 27) =     17.75687  eV     1   --> A'             
     e( 28 - 28) =     18.75869  eV     1   --> A''            
     e( 29 - 29) =     19.15902  eV     1   --> A''            
     e( 30 - 30) =     19.65414  eV     1   --> A'             
     e( 31 - 31) =     20.27958  eV     1   --> A'             
     e( 32 - 32) =     20.75461  eV     1   --> A''            
     e( 33 - 33) =     23.66174  eV     1   --> A'             
     e( 34 - 34) =     26.19765  eV     1   --> A''            
     e( 35 - 35) =     26.85933  eV     1   --> A'             
     e( 36 - 36) =     27.46467  eV     1   --> A'             
     e( 37 - 37) =     28.12167  eV     1   --> A'             
     e( 38 - 38) =     28.31331  eV     1   --> A''            
     e( 39 - 39) =     28.77548  eV     1   --> A''            
     e( 40 - 40) =     29.05423  eV     1   --> A'             

 **************************************************************************

 **************************************************************************

                    xk=(   0.46666,   0.34640,   0.00000  )

     Band symmetry, C_s (m)     point group:

     e(  1 -  1) =    -44.21879  eV     1   --> A'             
     e(  2 -  2) =    -44.20899  eV     1   --> A''            
     e(  3 -  3) =    -20.60747  eV     1   --> A'             
     e(  4 -  4) =    -20.59412  eV     1   --> A'             
     e(  5 -  5) =    -20.57851  eV     1   --> A''            
     e(  6 -  6) =    -20.47185  eV     1   --> A'             
     e(  7 -  7) =    -20.46862  eV     1   --> A''            
     e(  8 -  8) =    -20.45684  eV     1   --> A''            
     e(  9 -  9) =     -0.80188  eV     1   --> A'             
     e( 10 - 10) =     -0.49185  eV     1   --> A'             
     e( 11 - 11) =      5.71274  eV     1   --> A'             
     e( 12 - 12) =      7.02094  eV     1   --> A'             
     e( 13 - 13) =      7.56077  eV     1   --> A''            
     e( 14 - 14) =      8.26845  eV     1   --> A''            
     e( 15 - 15) =      8.85926  eV     1   --> A'             
     e( 16 - 16) =      9.70232  eV     1   --> A'             
     e( 17 - 17) =     11.62527  eV     1   --> A'             
     e( 18 - 18) =     12.27803  eV     1   --> A''            
     e( 19 - 19) =     13.74360  eV     1   --> A''            
     e( 20 - 20) =     14.81351  eV     1   --> A'             
     e( 21 - 21) =     15.04110  eV     1   --> A''            
     e( 22 - 22) =     15.09092  eV     1   --> A'             
     e( 23 - 23) =     15.13925  eV     1   --> A''            
     e( 24 - 24) =     15.79913  eV     1   --> A'             
     e( 25 - 25) =     16.56716  eV     1   --> A'             
     e( 26 - 26) =     16.81043  eV     1   --> A''            
     e( 27 - 27) =     17.84004  eV     1   --> A'             
     e( 28 - 28) =     18.79033  eV     1   --> A''            
     e( 29 - 29) =     19.10543  eV     1   --> A''            
     e( 30 - 30) =     19.68451  eV     1   --> A'             
     e( 31 - 31) =     20.31144  eV     1   --> A'             
     e( 32 - 32) =     20.77735  eV     1   --> A''            
     e( 33 - 33) =     23.62729  eV     1   --> A'             
     e( 34 - 34) =     26.09523  eV     1   --> A''            
     e( 35 - 35) =     26.84164  eV     1   --> A'             
     e( 36 - 36) =     27.34563  eV     1   --> A'             
     e( 37 - 37) =     28.07037  eV     1   --> A'             
     e( 38 - 38) =     28.40607  eV     1   --> A''            
     e( 39 - 39) =     28.82408  eV     1   --> A''            
     e( 40 - 40) =     29.04769  eV     1   --> A'             

 **************************************************************************

 **************************************************************************

                    xk=(   0.46333,   0.35217,   0.00000  )

     Band symmetry, C_s (m)     point group:

     e(  1 -  1) =    -44.21875  eV     1   --> A'             
     e(  2 -  2) =    -44.20896  eV     1   --> A''            
     e(  3 -  3) =    -20.60697  eV     1   --> A'             
     e(  4 -  4) =    -20.59399  eV     1   --> A'             
     e(  5 -  5) =    -20.57802  eV     1   --> A''            
     e(  6 -  6) =    -20.47289  eV     1   --> A'             
     e(  7 -  7) =    -20.46856  eV     1   --> A''            
     e(  8 -  8) =    -20.45780  eV     1   --> A''            
     e(  9 -  9) =     -0.79684  eV     1   --> A'             
     e( 10 - 10) =     -0.49098  eV     1   --> A'             
     e( 11 - 11) =      5.72334  eV     1   --> A'             
     e( 12 - 12) =      7.02156  eV     1   --> A'             
     e( 13 - 13) =      7.56780  eV     1   --> A''            
     e( 14 - 14) =      8.26414  eV     1   --> A''            
     e( 15 - 15) =      8.84705  eV     1   --> A'             
     e( 16 - 16) =      9.62864  eV     1   --> A'             
     e( 17 - 17) =     11.68485  eV     1   --> A'             
     e( 18 - 18) =     12.28822  eV     1   --> A''            
     e( 19 - 19) =     13.73821  eV     1   --> A''            
     e( 20 - 20) =     14.79312  eV     1   --> A'             
     e( 21 - 21) =     15.04137  eV     1   --> A''            
     e( 22 - 22) =     15.08352  eV     1   --> A'             
     e( 23 - 23) =     15.13819  eV     1   --> A''            
     e( 24 - 24) =     15.80705  eV     1   --> A'             
     e( 25 - 25) =     16.52778  eV     1   --> A'             
     e( 26 - 26) =     16.80475  eV     1   --> A''            
     e( 27 - 27) =     17.92464  eV     1   --> A'             
     e( 28 - 28) =     18.82492  eV     1   --> A''            
     e( 29 - 29) =     19.04897  eV     1   --> A''            
     e( 30 - 30) =     19.71810  eV     1   --> A'             
     e( 31 - 31) =     20.34661  eV     1   --> A'             
     e( 32 - 32) =     20.80014  eV     1   --> A''            
     e( 33 - 33) =     23.58993  eV     1   --> A'             
     e( 34 - 34) =     25.99145  eV     1   --> A''            
     e( 35 - 35) =     26.81935  eV     1   --> A'             
     e( 36 - 36) =     27.22674  eV     1   --> A'             
     e( 37 - 37) =     28.02075  eV     1   --> A'             
     e( 38 - 38) =     28.49912  eV     1   --> A''            
     e( 39 - 39) =     28.87732  eV     1   --> A''            
     e( 40 - 40) =     29.03676  eV     1   --> A'             

 **************************************************************************

 **************************************************************************

                    xk=(   0.45999,   0.35794,   0.00000  )

     Band symmetry, C_s (m)     point group:

     e(  1 -  1) =    -44.21870  eV     1   --> A'             
     e(  2 -  2) =    -44.20891  eV     1   --> A''            
     e(  3 -  3) =    -20.60641  eV     1   --> A'             
     e(  4 -  4) =    -20.59384  eV     1   --> A'             
     e(  5 -  5) =    -20.57748  eV     1   --> A''            
     e(  6 -  6) =    -20.47402  eV     1   --> A'             
     e(  7 -  7) =    -20.46850  eV     1   --> A''            
     e(  8 -  8) =    -20.45883  eV     1   --> A''            
     e(  9 -  9) =     -0.79136  eV     1   --> A'             
     e( 10 - 10) =     -0.49006  eV     1   --> A'             
     e( 11 - 11) =      5.73492  eV     1   --> A'             
     e( 12 - 12) =      7.02224  eV     1   --> A'             
     e( 13 - 13) =      7.57544  eV     1   --> A''            
     e( 14 - 14) =      8.25947  eV     1   --> A''            
     e( 15 - 15) =      8.83389  eV     1   --> A'             
     e( 16 - 16) =      9.55310  eV     1   --> A'             
     e( 17 - 17) =     11.74527  eV     1   --> A'             
     e( 18 - 18) =     12.29933  eV     1   --> A''            
     e( 19 - 19) =     13.73208  eV     1   --> A''            
     e( 20 - 20) =     14.77131  eV     1   --> A'             
     e( 21 - 21) =     15.04226  eV     1   --> A''            
     e( 22 - 22) =     15.07522  eV     1   --> A'             
     e( 23 - 23) =     15.13704  eV     1   --> A''            
     e( 24 - 24) =     15.81560  eV     1   --> A'             
     e( 25 - 25) =     16.49061  eV     1   --> A'             
     e( 26 - 26) =     16.79851  eV     1   --> A''            
     e( 27 - 27) =     18.01059  eV     1   --> A'             
     e( 28 - 28) =     18.86233  eV     1   --> A''            
     e( 29 - 29) =     18.99008  eV     1   --> A''            
     e( 30 - 30) =     19.75490  eV     1   --> A'             
     e( 31 - 31) =     20.38504  eV     1   --> A'             
     e( 32 - 32) =     20.82272  eV     1   --> A''            
     e( 33 - 33) =     23.54987  eV     1   --> A'             
     e( 34 - 34) =     25.88672  eV     1   --> A''            
     e( 35 - 35) =     26.79183  eV     1   --> A'             
     e( 36 - 36) =     27.10810  eV     1   --> A'             
     e( 37 - 37) =     27.97386  eV     1   --> A'             
     e( 38 - 38) =     28.59214  eV     1   --> A''            
     e( 39 - 39) =     28.93505  eV     1   --> A''            
     e( 40 - 40) =     29.02152  eV     1   --> A'             

 **************************************************************************

 **************************************************************************

                    xk=(   0.45666,   0.36372,   0.00000  )

     Band symmetry, C_s (m)     point group:

     e(  1 -  1) =    -44.21866  eV     1   --> A'             
     e(  2 -  2) =    -44.20887  eV     1   --> A''            
     e(  3 -  3) =    -20.60582  eV     1   --> A'             
     e(  4 -  4) =    -20.59368  eV     1   --> A'             
     e(  5 -  5) =    -20.57690  eV     1   --> A''            
     e(  6 -  6) =    -20.47525  eV     1   --> A'             
     e(  7 -  7) =    -20.46844  eV     1   --> A''            
     e(  8 -  8) =    -20.45995  eV     1   --> A''            
     e(  9 -  9) =     -0.78546  eV     1   --> A'             
     e( 10 - 10) =     -0.48907  eV     1   --> A'             
     e( 11 - 11) =      5.74749  eV     1   --> A'             
     e( 12 - 12) =      7.02295  eV     1   --> A'             
     e( 13 - 13) =      7.58366  eV     1   --> A''            
     e( 14 - 14) =      8.25447  eV     1   --> A''            
     e( 15 - 15) =      8.81984  eV     1   --> A'             
     e( 16 - 16) =      9.47606  eV     1   --> A'             
     e( 17 - 17) =     11.80624  eV     1   --> A'             
     e( 18 - 18) =     12.31135  eV     1   --> A''            
     e( 19 - 19) =     13.72516  eV     1   --> A''            
     e( 20 - 20) =     14.74819  eV     1   --> A'             
     e( 21 - 21) =     15.04388  eV     1   --> A''            
     e( 22 - 22) =     15.06599  eV     1   --> A'             
     e( 23 - 23) =     15.13577  eV     1   --> A''            
     e( 24 - 24) =     15.82473  eV     1   --> A'             
     e( 25 - 25) =     16.45557  eV     1   --> A'             
     e( 26 - 26) =     16.79168  eV     1   --> A''            
     e( 27 - 27) =     18.09773  eV     1   --> A'             
     e( 28 - 28) =     18.90248  eV     1   --> A''            
     e( 29 - 29) =     18.92912  eV     1   --> A''            
     e( 30 - 30) =     19.79493  eV     1   --> A'             
     e( 31 - 31) =     20.42671  eV     1   --> A'             
     e( 32 - 32) =     20.84484  eV     1   --> A''            
     e( 33 - 33) =     23.50726  eV     1   --> A'             
     e( 34 - 34) =     25.78125  eV     1   --> A''            
     e( 35 - 35) =     26.75847  eV     1   --> A'             
     e( 36 - 36) =     26.98979  eV     1   --> A'             
     e( 37 - 37) =     27.93047  eV     1   --> A'             
     e( 38 - 38) =     28.68470  eV     1   --> A''            
     e( 39 - 39) =     28.99713  eV     1   --> A''            
     e( 40 - 40) =     29.00203  eV     1   --> A'             

 **************************************************************************

 **************************************************************************

                    xk=(   0.45332,   0.36949,   0.00000  )

     Band symmetry, C_s (m)     point group:

     e(  1 -  1) =    -44.21861  eV     1   --> A'             
     e(  2 -  2) =    -44.20882  eV     1   --> A''            
     e(  3 -  3) =    -20.60519  eV     1   --> A'             
     e(  4 -  4) =    -20.59350  eV     1   --> A'             
     e(  5 -  5) =    -20.57627  eV     1   --> A''            
     e(  6 -  6) =    -20.47656  eV     1   --> A'             
     e(  7 -  7) =    -20.46838  eV     1   --> A''            
     e(  8 -  8) =    -20.46115  eV     1   --> A''            
     e(  9 -  9) =     -0.77914  eV     1   --> A'             
     e( 10 - 10) =     -0.48803  eV     1   --> A'             
     e( 11 - 11) =      5.76104  eV     1   --> A'             
     e( 12 - 12) =      7.02370  eV     1   --> A'             
     e( 13 - 13) =      7.59246  eV     1   --> A''            
     e( 14 - 14) =      8.24913  eV     1   --> A''            
     e( 15 - 15) =      8.80494  eV     1   --> A'             
     e( 16 - 16) =      9.39781  eV     1   --> A'             
     e( 17 - 17) =     11.86753  eV     1   --> A'             
     e( 18 - 18) =     12.32426  eV     1   --> A''            
     e( 19 - 19) =     13.71742  eV     1   --> A''            
     e( 20 - 20) =     14.72388  eV     1   --> A'             
     e( 21 - 21) =     15.04636  eV     1   --> A''            
     e( 22 - 22) =     15.05582  eV     1   --> A'             
     e( 23 - 23) =     15.13438  eV     1   --> A''            
     e( 24 - 24) =     15.83439  eV     1   --> A'             
     e( 25 - 25) =     16.42260  eV     1   --> A'             
     e( 26 - 26) =     16.78426  eV     1   --> A''            
     e( 27 - 27) =     18.18593  eV     1   --> A'             
     e( 28 - 28) =     18.86646  eV     1   --> A''            
     e( 29 - 29) =     18.94525  eV     1   --> A''            
     e( 30 - 30) =     19.83820  eV     1   --> A'             
     e( 31 - 31) =     20.47160  eV     1   --> A'             
     e( 32 - 32) =     20.86629  eV     1   --> A''            
     e( 33 - 33) =     23.46231  eV     1   --> A'             
     e( 34 - 34) =     25.67531  eV     1   --> A''            
     e( 35 - 35) =     26.71884  eV     1   --> A'             
     e( 36 - 36) =     26.87187  eV     1   --> A'             
     e( 37 - 37) =     27.89122  eV     1   --> A'             
     e( 38 - 38) =     28.77685  eV     1   --> A''            
     e( 39 - 39) =     28.97853  eV     1   --> A'             
     e( 40 - 40) =     29.06338  eV     1   --> A''            

 **************************************************************************

 **************************************************************************

                    xk=(   0.44999,   0.37526,   0.00000  )

     Band symmetry, C_s (m)     point group:

     e(  1 -  1) =    -44.21856  eV     1   --> A'             
     e(  2 -  2) =    -44.20877  eV     1   --> A''            
     e(  3 -  3) =    -20.60452  eV     1   --> A'             
     e(  4 -  4) =    -20.59329  eV     1   --> A'             
     e(  5 -  5) =    -20.57561  eV     1   --> A''            
     e(  6 -  6) =    -20.47796  eV     1   --> A'             
     e(  7 -  7) =    -20.46831  eV     1   --> A''            
     e(  8 -  8) =    -20.46242  eV     1   --> A''            
     e(  9 -  9) =     -0.77243  eV     1   --> A'             
     e( 10 - 10) =     -0.48693  eV     1   --> A'             
     e( 11 - 11) =      5.77557  eV     1   --> A'             
     e( 12 - 12) =      7.02447  eV     1   --> A'             
     e( 13 - 13) =      7.60179  eV     1   --> A''            
     e( 14 - 14) =      8.24347  eV     1   --> A''            
     e( 15 - 15) =      8.78926  eV     1   --> A'             
     e( 16 - 16) =      9.31860  eV     1   --> A'             
     e( 17 - 17) =     11.92898  eV     1   --> A'             
     e( 18 - 18) =     12.33803  eV     1   --> A''            
     e( 19 - 19) =     13.70881  eV     1   --> A''            
     e( 20 - 20) =     14.69852  eV     1   --> A'             
     e( 21 - 21) =     15.04466  eV     1   --> A'             
     e( 22 - 22) =     15.04980  eV     1   --> A''            
     e( 23 - 23) =     15.13287  eV     1   --> A''            
     e( 24 - 24) =     15.84453  eV     1   --> A'             
     e( 25 - 25) =     16.39163  eV     1   --> A'             
     e( 26 - 26) =     16.77623  eV     1   --> A''            
     e( 27 - 27) =     18.27505  eV     1   --> A'             
     e( 28 - 28) =     18.80238  eV     1   --> A''            
     e( 29 - 29) =     18.99051  eV     1   --> A''            
     e( 30 - 30) =     19.88472  eV     1   --> A'             
     e( 31 - 31) =     20.51962  eV     1   --> A'             
     e( 32 - 32) =     20.88689  eV     1   --> A''            
     e( 33 - 33) =     23.41516  eV     1   --> A'             
     e( 34 - 34) =     25.56904  eV     1   --> A''            
     e( 35 - 35) =     26.67265  eV     1   --> A'             
     e( 36 - 36) =     26.75440  eV     1   --> A'             
     e( 37 - 37) =     27.85648  eV     1   --> A'             
     e( 38 - 38) =     28.86826  eV     1   --> A''            
     e( 39 - 39) =     28.95121  eV     1   --> A'             
     e( 40 - 40) =     29.13362  eV     1   --> A''            

 **************************************************************************

 **************************************************************************

                    xk=(   0.44666,   0.38103,   0.00000  )

     Band symmetry, C_s (m)     point group:

     e(  1 -  1) =    -44.21851  eV     1   --> A'             
     e(  2 -  2) =    -44.20872  eV     1   --> A''            
     e(  3 -  3) =    -20.60381  eV     1   --> A'             
     e(  4 -  4) =    -20.59307  eV     1   --> A'             
     e(  5 -  5) =    -20.57490  eV     1   --> A''            
     e(  6 -  6) =    -20.47943  eV     1   --> A'             
     e(  7 -  7) =    -20.46823  eV     1   --> A''            
     e(  8 -  8) =    -20.46377  eV     1   --> A''            
     e(  9 -  9) =     -0.76533  eV     1   --> A'             
     e( 10 - 10) =     -0.48580  eV     1   --> A'             
     e( 11 - 11) =      5.79107  eV     1   --> A'             
     e( 12 - 12) =      7.02526  eV     1   --> A'             
     e( 13 - 13) =      7.61166  eV     1   --> A''            
     e( 14 - 14) =      8.23753  eV     1   --> A''            
     e( 15 - 15) =      8.77286  eV     1   --> A'             
     e( 16 - 16) =      9.23867  eV     1   --> A'             
     e( 17 - 17) =     11.99048  eV     1   --> A'             
     e( 18 - 18) =     12.35266  eV     1   --> A''            
     e( 19 - 19) =     13.69931  eV     1   --> A''            
     e( 20 - 20) =     14.67224  eV     1   --> A'             
     e( 21 - 21) =     15.03252  eV     1   --> A'             
     e( 22 - 22) =     15.05432  eV     1   --> A''            
     e( 23 - 23) =     15.13124  eV     1   --> A''            
     e( 24 - 24) =     15.85509  eV     1   --> A'             
     e( 25 - 25) =     16.36256  eV     1   --> A'             
     e( 26 - 26) =     16.76758  eV     1   --> A''            
     e( 27 - 27) =     18.36494  eV     1   --> A'             
     e( 28 - 28) =     18.73721  eV     1   --> A''            
     e( 29 - 29) =     19.03818  eV     1   --> A''            
     e( 30 - 30) =     19.93454  eV     1   --> A'             
     e( 31 - 31) =     20.57078  eV     1   --> A'             
     e( 32 - 32) =     20.90657  eV     1   --> A''            
     e( 33 - 33) =     23.36602  eV     1   --> A'             
     e( 34 - 34) =     25.46262  eV     1   --> A''            
     e( 35 - 35) =     26.61987  eV     1   --> A'             
     e( 36 - 36) =     26.63743  eV     1   --> A'             
     e( 37 - 37) =     27.82653  eV     1   --> A'             
     e( 38 - 38) =     28.92050  eV     1   --> A'             
     e( 39 - 39) =     28.95885  eV     1   --> A''            
     e( 40 - 40) =     29.20766  eV     1   --> A''            

 **************************************************************************

 **************************************************************************

                    xk=(   0.44332,   0.38681,   0.00000  )

     Band symmetry, C_s (m)     point group:

     e(  1 -  1) =    -44.21845  eV     1   --> A'             
     e(  2 -  2) =    -44.20866  eV     1   --> A''            
     e(  3 -  3) =    -20.60308  eV     1   --> A'             
     e(  4 -  4) =    -20.59283  eV     1   --> A'             
     e(  5 -  5) =    -20.57414  eV     1   --> A''            
     e(  6 -  6) =    -20.48098  eV     1   --> A'             
     e(  7 -  7) =    -20.46815  eV     1   --> A''            
     e(  8 -  8) =    -20.46519  eV     1   --> A''            
     e(  9 -  9) =     -0.75786  eV     1   --> A'             
     e( 10 - 10) =     -0.48462  eV     1   --> A'             
     e( 11 - 11) =      5.80753  eV     1   --> A'             
     e( 12 - 12) =      7.02606  eV     1   --> A'             
     e( 13 - 13) =      7.62204  eV     1   --> A''            
     e( 14 - 14) =      8.23130  eV     1   --> A''            
     e( 15 - 15) =      8.75581  eV     1   --> A'             
     e( 16 - 16) =      9.15819  eV     1   --> A'             
     e( 17 - 17) =     12.05192  eV     1   --> A'             
     e( 18 - 18) =     12.36813  eV     1   --> A''            
     e( 19 - 19) =     13.68891  eV     1   --> A''            
     e( 20 - 20) =     14.64516  eV     1   --> A'             
     e( 21 - 21) =     15.01937  eV     1   --> A'             
     e( 22 - 22) =     15.06000  eV     1   --> A''            
     e( 23 - 23) =     15.12948  eV     1   --> A''            
     e( 24 - 24) =     15.86600  eV     1   --> A'             
     e( 25 - 25) =     16.33532  eV     1   --> A'             
     e( 26 - 26) =     16.75829  eV     1   --> A''            
     e( 27 - 27) =     18.45544  eV     1   --> A'             
     e( 28 - 28) =     18.67120  eV     1   --> A''            
     e( 29 - 29) =     19.08813  eV     1   --> A''            
     e( 30 - 30) =     19.98767  eV     1   --> A'             
     e( 31 - 31) =     20.62500  eV     1   --> A'             
     e( 32 - 32) =     20.92520  eV     1   --> A''            
     e( 33 - 33) =     23.31505  eV     1   --> A'             
     e( 34 - 34) =     25.35615  eV     1   --> A''            
     e( 35 - 35) =     26.52099  eV     1   --> A'             
     e( 36 - 36) =     26.56065  eV     1   --> A'             
     e( 37 - 37) =     27.80127  eV     1   --> A'             
     e( 38 - 38) =     28.88667  eV     1   --> A'             
     e( 39 - 39) =     29.04846  eV     1   --> A''            
     e( 40 - 40) =     29.28529  eV     1   --> A''            

 **************************************************************************

 **************************************************************************

                    xk=(   0.43999,   0.39258,   0.00000  )

     Band symmetry, C_s (m)     point group:

     e(  1 -  1) =    -44.21838  eV     1   --> A'             
     e(  2 -  2) =    -44.20861  eV     1   --> A''            
     e(  3 -  3) =    -20.60232  eV     1   --> A'             
     e(  4 -  4) =    -20.59256  eV     1   --> A'             
     e(  5 -  5) =    -20.57334  eV     1   --> A''            
     e(  6 -  6) =    -20.48260  eV     1   --> A'             
     e(  7 -  7) =    -20.46807  eV     1   --> A''            
     e(  8 -  8) =    -20.46668  eV     1   --> A''            
     e(  9 -  9) =     -0.75005  eV     1   --> A'             
     e( 10 - 10) =     -0.48342  eV     1   --> A'             
     e( 11 - 11) =      5.82494  eV     1   --> A'             
     e( 12 - 12) =      7.02687  eV     1   --> A'             
     e( 13 - 13) =      7.63288  eV     1   --> A''            
     e( 14 - 14) =      8.22481  eV     1   --> A''            
     e( 15 - 15) =      8.73818  eV     1   --> A'             
     e( 16 - 16) =      9.07733  eV     1   --> A'             
     e( 17 - 17) =     12.11323  eV     1   --> A'             
     e( 18 - 18) =     12.38439  eV     1   --> A''            
     e( 19 - 19) =     13.67760  eV     1   --> A''            
     e( 20 - 20) =     14.61740  eV     1   --> A'             
     e( 21 - 21) =     15.00522  eV     1   --> A'             
     e( 22 - 22) =     15.06693  eV     1   --> A''            
     e( 23 - 23) =     15.12759  eV     1   --> A''            
     e( 24 - 24) =     15.87719  eV     1   --> A'             
     e( 25 - 25) =     16.30984  eV     1   --> A'             
     e( 26 - 26) =     16.74834  eV     1   --> A''            
     e( 27 - 27) =     18.54641  eV     1   --> A'             
     e( 28 - 28) =     18.60457  eV     1   --> A''            
     e( 29 - 29) =     19.14024  eV     1   --> A''            
     e( 30 - 30) =     20.04412  eV     1   --> A'             
     e( 31 - 31) =     20.68219  eV     1   --> A'             
     e( 32 - 32) =     20.94271  eV     1   --> A''            
     e( 33 - 33) =     23.26242  eV     1   --> A'             
     e( 34 - 34) =     25.24974  eV     1   --> A''            
     e( 35 - 35) =     26.40513  eV     1   --> A'             
     e( 36 - 36) =     26.49531  eV     1   --> A'             
     e( 37 - 37) =     27.78048  eV     1   --> A'             
     e( 38 - 38) =     28.85007  eV     1   --> A'             
     e( 39 - 39) =     29.13695  eV     1   --> A''            
     e( 40 - 40) =     29.36627  eV     1   --> A''            

 **************************************************************************

 **************************************************************************

                    xk=(   0.43665,   0.39835,   0.00000  )

     Band symmetry, C_s (m)     point group:

     e(  1 -  1) =    -44.21832  eV     1   --> A'             
     e(  2 -  2) =    -44.20855  eV     1   --> A''            
     e(  3 -  3) =    -20.60154  eV     1   --> A'             
     e(  4 -  4) =    -20.59225  eV     1   --> A'             
     e(  5 -  5) =    -20.57250  eV     1   --> A''            
     e(  6 -  6) =    -20.48430  eV     1   --> A'             
     e(  7 -  7) =    -20.46824  eV     1   --> A''            
     e(  8 -  8) =    -20.46798  eV     1   --> A''            
     e(  9 -  9) =     -0.74190  eV     1   --> A'             
     e( 10 - 10) =     -0.48219  eV     1   --> A'             
     e( 11 - 11) =      5.84330  eV     1   --> A'             
     e( 12 - 12) =      7.02768  eV     1   --> A'             
     e( 13 - 13) =      7.64418  eV     1   --> A''            
     e( 14 - 14) =      8.21809  eV     1   --> A''            
     e( 15 - 15) =      8.72003  eV     1   --> A'             
     e( 16 - 16) =      8.99623  eV     1   --> A'             
     e( 17 - 17) =     12.17437  eV     1   --> A'             
     e( 18 - 18) =     12.40145  eV     1   --> A''            
     e( 19 - 19) =     13.66537  eV     1   --> A''            
     e( 20 - 20) =     14.58909  eV     1   --> A'             
     e( 21 - 21) =     14.99005  eV     1   --> A'             
     e( 22 - 22) =     15.07518  eV     1   --> A''            
     e( 23 - 23) =     15.12556  eV     1   --> A''            
     e( 24 - 24) =     15.88860  eV     1   --> A'             
     e( 25 - 25) =     16.28602  eV     1   --> A'             
     e( 26 - 26) =     16.73770  eV     1   --> A''            
     e( 27 - 27) =     18.53764  eV     1   --> A''            
     e( 28 - 28) =     18.63769  eV     1   --> A'             
     e( 29 - 29) =     19.19441  eV     1   --> A''            
     e( 30 - 30) =     20.10393  eV     1   --> A'             
     e( 31 - 31) =     20.74230  eV     1   --> A'             
     e( 32 - 32) =     20.95905  eV     1   --> A''            
     e( 33 - 33) =     23.20829  eV     1   --> A'             
     e( 34 - 34) =     25.14351  eV     1   --> A''            
     e( 35 - 35) =     26.28990  eV     1   --> A'             
     e( 36 - 36) =     26.42433  eV     1   --> A'             
     e( 37 - 37) =     27.76377  eV     1   --> A'             
     e( 38 - 38) =     28.81105  eV     1   --> A'             
     e( 39 - 39) =     29.22432  eV     1   --> A''            
     e( 40 - 40) =     29.45038  eV     1   --> A''            

 **************************************************************************

 **************************************************************************

                    xk=(   0.43332,   0.40412,   0.00000  )

     Band symmetry, C_s (m)     point group:

     e(  1 -  1) =    -44.21824  eV     1   --> A'             
     e(  2 -  2) =    -44.20848  eV     1   --> A''            
     e(  3 -  3) =    -20.60074  eV     1   --> A'             
     e(  4 -  4) =    -20.59190  eV     1   --> A'             
     e(  5 -  5) =    -20.57162  eV     1   --> A''            
     e(  6 -  6) =    -20.48606  eV     1   --> A'             
     e(  7 -  7) =    -20.46985  eV     1   --> A''            
     e(  8 -  8) =    -20.46789  eV     1   --> A''            
     e(  9 -  9) =     -0.73344  eV     1   --> A'             
     e( 10 - 10) =     -0.48093  eV     1   --> A'             
     e( 11 - 11) =      5.86261  eV     1   --> A'             
     e( 12 - 12) =      7.02848  eV     1   --> A'             
     e( 13 - 13) =      7.65591  eV     1   --> A''            
     e( 14 - 14) =      8.21114  eV     1   --> A''            
     e( 15 - 15) =      8.70145  eV     1   --> A'             
     e( 16 - 16) =      8.91504  eV     1   --> A'             
     e( 17 - 17) =     12.23530  eV     1   --> A'             
     e( 18 - 18) =     12.41928  eV     1   --> A''            
     e( 19 - 19) =     13.65223  eV     1   --> A''            
     e( 20 - 20) =     14.56035  eV     1   --> A'             
     e( 21 - 21) =     14.97387  eV     1   --> A'             
     e( 22 - 22) =     15.08480  eV     1   --> A''            
     e( 23 - 23) =     15.12341  eV     1   --> A''            
     e( 24 - 24) =     15.90016  eV     1   --> A'             
     e( 25 - 25) =     16.26380  eV     1   --> A'             
     e( 26 - 26) =     16.72637  eV     1   --> A''            
     e( 27 - 27) =     18.47059  eV     1   --> A''            
     e( 28 - 28) =     18.72911  eV     1   --> A'             
     e( 29 - 29) =     19.25051  eV     1   --> A''            
     e( 30 - 30) =     20.16712  eV     1   --> A'             
     e( 31 - 31) =     20.80522  eV     1   --> A'             
     e( 32 - 32) =     20.97419  eV     1   --> A''            
     e( 33 - 33) =     23.15284  eV     1   --> A'             
     e( 34 - 34) =     25.03757  eV     1   --> A''            
     e( 35 - 35) =     26.17535  eV     1   --> A'             
     e( 36 - 36) =     26.34833  eV     1   --> A'             
     e( 37 - 37) =     27.75069  eV     1   --> A'             
     e( 38 - 38) =     28.77006  eV     1   --> A'             
     e( 39 - 39) =     29.31050  eV     1   --> A''            
     e( 40 - 40) =     29.53734  eV     1   --> A''            

 **************************************************************************

 **************************************************************************

                    xk=(   0.42999,   0.40989,   0.00000  )

     Band symmetry, C_s (m)     point group:

     e(  1 -  1) =    -44.21817  eV     1   --> A'             
     e(  2 -  2) =    -44.20842  eV     1   --> A''            
     e(  3 -  3) =    -20.59995  eV     1   --> A'             
     e(  4 -  4) =    -20.59151  eV     1   --> A'             
     e(  5 -  5) =    -20.57069  eV     1   --> A''            
     e(  6 -  6) =    -20.48789  eV     1   --> A'             
     e(  7 -  7) =    -20.47153  eV     1   --> A''            
     e(  8 -  8) =    -20.46780  eV     1   --> A''            
     e(  9 -  9) =     -0.72469  eV     1   --> A'             
     e( 10 - 10) =     -0.47968  eV     1   --> A'             
     e( 11 - 11) =      5.88284  eV     1   --> A'             
     e( 12 - 12) =      7.02926  eV     1   --> A'             
     e( 13 - 13) =      7.66802  eV     1   --> A''            
     e( 14 - 14) =      8.20398  eV     1   --> A''            
     e( 15 - 15) =      8.68251  eV     1   --> A'             
     e( 16 - 16) =      8.83388  eV     1   --> A'             
     e( 17 - 17) =     12.29599  eV     1   --> A'             
     e( 18 - 18) =     12.43783  eV     1   --> A''            
     e( 19 - 19) =     13.63820  eV     1   --> A''            
     e( 20 - 20) =     14.53125  eV     1   --> A'             
     e( 21 - 21) =     14.95669  eV     1   --> A'             
     e( 22 - 22) =     15.09584  eV     1   --> A''            
     e( 23 - 23) =     15.12111  eV     1   --> A''            
     e( 24 - 24) =     15.91179  eV     1   --> A'             
     e( 25 - 25) =     16.24309  eV     1   --> A'             
     e( 26 - 26) =     16.71429  eV     1   --> A''            
     e( 27 - 27) =     18.40364  eV     1   --> A''            
     e( 28 - 28) =     18.82053  eV     1   --> A'             
     e( 29 - 29) =     19.30843  eV     1   --> A''            
     e( 30 - 30) =     20.23369  eV     1   --> A'             
     e( 31 - 31) =     20.87085  eV     1   --> A'             
     e( 32 - 32) =     20.98809  eV     1   --> A''            
     e( 33 - 33) =     23.09619  eV     1   --> A'             
     e( 34 - 34) =     24.93196  eV     1   --> A''            
     e( 35 - 35) =     26.06147  eV     1   --> A'             
     e( 36 - 36) =     26.26771  eV     1   --> A'             
     e( 37 - 37) =     27.74072  eV     1   --> A'             
     e( 38 - 38) =     28.72730  eV     1   --> A'             
     e( 39 - 39) =     29.39532  eV     1   --> A''            
     e( 40 - 40) =     29.62684  eV     1   --> A''            

 **************************************************************************

 **************************************************************************

                    xk=(   0.42665,   0.41567,   0.00000  )

     Band symmetry, C_s (m)     point group:

     e(  1 -  1) =    -44.21810  eV     1   --> A'             
     e(  2 -  2) =    -44.20835  eV     1   --> A''            
     e(  3 -  3) =    -20.59917  eV     1   --> A'             
     e(  4 -  4) =    -20.59107  eV     1   --> A'             
     e(  5 -  5) =    -20.56972  eV     1   --> A''            
     e(  6 -  6) =    -20.48979  eV     1   --> A'             
     e(  7 -  7) =    -20.47327  eV     1   --> A''            
     e(  8 -  8) =    -20.46771  eV     1   --> A''            
     e(  9 -  9) =     -0.71567  eV     1   --> A'             
     e( 10 - 10) =     -0.47842  eV     1   --> A'             
     e( 11 - 11) =      5.90400  eV     1   --> A'             
     e( 12 - 12) =      7.03002  eV     1   --> A'             
     e( 13 - 13) =      7.68050  eV     1   --> A''            
     e( 14 - 14) =      8.19665  eV     1   --> A''            
     e( 15 - 15) =      8.66327  eV     1   --> A'             
     e( 16 - 16) =      8.75285  eV     1   --> A'             
     e( 17 - 17) =     12.35642  eV     1   --> A'             
     e( 18 - 18) =     12.45707  eV     1   --> A''            
     e( 19 - 19) =     13.62331  eV     1   --> A''            
     e( 20 - 20) =     14.50193  eV     1   --> A'             
     e( 21 - 21) =     14.93851  eV     1   --> A'             
     e( 22 - 22) =     15.10832  eV     1   --> A''            
     e( 23 - 23) =     15.11868  eV     1   --> A''            
     e( 24 - 24) =     15.92343  eV     1   --> A'             
     e( 25 - 25) =     16.22382  eV     1   --> A'             
     e( 26 - 26) =     16.70144  eV     1   --> A''            
     e( 27 - 27) =     18.33700  eV     1   --> A''            
     e( 28 - 28) =     18.91180  eV     1   --> A'             
     e( 29 - 29) =     19.36806  eV     1   --> A''            
     e( 30 - 30) =     20.30365  eV     1   --> A'             
     e( 31 - 31) =     20.93906  eV     1   --> A'             
     e( 32 - 32) =     21.00075  eV     1   --> A''            
     e( 33 - 33) =     23.03852  eV     1   --> A'             
     e( 34 - 34) =     24.82678  eV     1   --> A''            
     e( 35 - 35) =     25.94832  eV     1   --> A'             
     e( 36 - 36) =     26.18314  eV     1   --> A'             
     e( 37 - 37) =     27.73339  eV     1   --> A'             
     e( 38 - 38) =     28.68319  eV     1   --> A'             
     e( 39 - 39) =     29.47878  eV     1   --> A''            
     e( 40 - 40) =     29.71858  eV     1   --> A''            

 **************************************************************************

 **************************************************************************

                    xk=(   0.42332,   0.42144,   0.00000  )

     Band symmetry, C_s (m)     point group:

     e(  1 -  1) =    -44.21803  eV     1   --> A'             
     e(  2 -  2) =    -44.20828  eV     1   --> A''            
     e(  3 -  3) =    -20.59840  eV     1   --> A'             
     e(  4 -  4) =    -20.59055  eV     1   --> A'             
     e(  5 -  5) =    -20.56872  eV     1   --> A''            
     e(  6 -  6) =    -20.49174  eV     1   --> A'             
     e(  7 -  7) =    -20.47506  eV     1   --> A''            
     e(  8 -  8) =    -20.46761  eV     1   --> A''            
     e(  9 -  9) =     -0.70640  eV     1   --> A'             
     e( 10 - 10) =     -0.47717  eV     1   --> A'             
     e( 11 - 11) =      5.92606  eV     1   --> A'             
     e( 12 - 12) =      7.03075  eV     1   --> A'             
     e( 13 - 13) =      7.69330  eV     1   --> A''            
     e( 14 - 14) =      8.18915  eV     1   --> A''            
     e( 15 - 15) =      8.64383  eV     1   --> A'             
     e( 16 - 16) =      8.67208  eV     1   --> A'             
     e( 17 - 17) =     12.41659  eV     1   --> A'             
     e( 18 - 18) =     12.47698  eV     1   --> A''            
     e( 19 - 19) =     13.60760  eV     1   --> A''            
     e( 20 - 20) =     14.47247  eV     1   --> A'             
     e( 21 - 21) =     14.91934  eV     1   --> A'             
     e( 22 - 22) =     15.11611  eV     1   --> A''            
     e( 23 - 23) =     15.12228  eV     1   --> A''            
     e( 24 - 24) =     15.93501  eV     1   --> A'             
     e( 25 - 25) =     16.20594  eV     1   --> A'             
     e( 26 - 26) =     16.68779  eV     1   --> A''            
     e( 27 - 27) =     18.27088  eV     1   --> A''            
     e( 28 - 28) =     19.00277  eV     1   --> A'             
     e( 29 - 29) =     19.42928  eV     1   --> A''            
     e( 30 - 30) =     20.37700  eV     1   --> A'             
     e( 31 - 31) =     21.00971  eV     1   --> A'             
     e( 32 - 32) =     21.01218  eV     1   --> A''            
     e( 33 - 33) =     22.97999  eV     1   --> A'             
     e( 34 - 34) =     24.72213  eV     1   --> A''            
     e( 35 - 35) =     25.83595  eV     1   --> A'             
     e( 36 - 36) =     26.09514  eV     1   --> A'             
     e( 37 - 37) =     27.72824  eV     1   --> A'             
     e( 38 - 38) =     28.63808  eV     1   --> A'             
     e( 39 - 39) =     29.56081  eV     1   --> A''            
     e( 40 - 40) =     29.81221  eV     1   --> A''            

 **************************************************************************

 **************************************************************************

                    xk=(   0.41998,   0.42721,   0.00000  )

     Band symmetry, C_s (m)     point group:

     e(  1 -  1) =    -44.21797  eV     1   --> A'             
     e(  2 -  2) =    -44.20821  eV     1   --> A''            
     e(  3 -  3) =    -20.59768  eV     1   --> A'             
     e(  4 -  4) =    -20.58996  eV     1   --> A'             
     e(  5 -  5) =    -20.56767  eV     1   --> A''            
     e(  6 -  6) =    -20.49376  eV     1   --> A'             
     e(  7 -  7) =    -20.47690  eV     1   --> A''            
     e(  8 -  8) =    -20.46752  eV     1   --> A''            
     e(  9 -  9) =     -0.69692  eV     1   --> A'             
     e( 10 - 10) =     -0.47593  eV     1   --> A'             
     e( 11 - 11) =      5.94902  eV     1   --> A'             
     e( 12 - 12) =      7.03142  eV     1   --> A'             
     e( 13 - 13) =      7.70640  eV     1   --> A''            
     e( 14 - 14) =      8.18151  eV     1   --> A''            
     e( 15 - 15) =      8.59166  eV     1   --> A'             
     e( 16 - 16) =      8.62426  eV     1   --> A'             
     e( 17 - 17) =     12.47650  eV     1   --> A'             
     e( 18 - 18) =     12.49751  eV     1   --> A''            
     e( 19 - 19) =     13.59110  eV     1   --> A''            
     e( 20 - 20) =     14.44296  eV     1   --> A'             
     e( 21 - 21) =     14.89919  eV     1   --> A'             
     e( 22 - 22) =     15.11341  eV     1   --> A''            
     e( 23 - 23) =     15.13770  eV     1   --> A''            
     e( 24 - 24) =     15.94647  eV     1   --> A'             
     e( 25 - 25) =     16.18936  eV     1   --> A'             
     e( 26 - 26) =     16.67330  eV     1   --> A''            
     e( 27 - 27) =     18.20549  eV     1   --> A''            
     e( 28 - 28) =     19.09331  eV     1   --> A'             
     e( 29 - 29) =     19.49197  eV     1   --> A''            
     e( 30 - 30) =     20.45372  eV     1   --> A'             
     e( 31 - 31) =     21.02238  eV     1   --> A''            
     e( 32 - 32) =     21.08264  eV     1   --> A'             
     e( 33 - 33) =     22.92074  eV     1   --> A'             
     e( 34 - 34) =     24.61808  eV     1   --> A''            
     e( 35 - 35) =     25.72436  eV     1   --> A'             
     e( 36 - 36) =     26.00420  eV     1   --> A'             
     e( 37 - 37) =     27.72483  eV     1   --> A'             
     e( 38 - 38) =     28.59226  eV     1   --> A'             
     e( 39 - 39) =     29.64137  eV     1   --> A''            
     e( 40 - 40) =     29.77378  eV     1   --> A'             

 **************************************************************************

 **************************************************************************

                    xk=(   0.41665,   0.43298,   0.00000  )

     Band symmetry, C_s (m)     point group:

     e(  1 -  1) =    -44.21790  eV     1   --> A'             
     e(  2 -  2) =    -44.20814  eV     1   --> A''            
     e(  3 -  3) =    -20.59699  eV     1   --> A'             
     e(  4 -  4) =    -20.58928  eV     1   --> A'             
     e(  5 -  5) =    -20.56659  eV     1   --> A''            
     e(  6 -  6) =    -20.49582  eV     1   --> A'             
     e(  7 -  7) =    -20.47879  eV     1   --> A''            
     e(  8 -  8) =    -20.46742  eV     1   --> A''            
     e(  9 -  9) =     -0.68724  eV     1   --> A'             
     e( 10 - 10) =     -0.47472  eV     1   --> A'             
     e( 11 - 11) =      5.97287  eV     1   --> A'             
     e( 12 - 12) =      7.03205  eV     1   --> A'             
     e( 13 - 13) =      7.71975  eV     1   --> A''            
     e( 14 - 14) =      8.17375  eV     1   --> A''            
     e( 15 - 15) =      8.51169  eV     1   --> A'             
     e( 16 - 16) =      8.60463  eV     1   --> A'             
     e( 17 - 17) =     12.51863  eV     1   --> A''            
     e( 18 - 18) =     12.53613  eV     1   --> A'             
     e( 19 - 19) =     13.57387  eV     1   --> A''            
     e( 20 - 20) =     14.41350  eV     1   --> A'             
     e( 21 - 21) =     14.87808  eV     1   --> A'             
     e( 22 - 22) =     15.11057  eV     1   --> A''            
     e( 23 - 23) =     15.15459  eV     1   --> A''            
     e( 24 - 24) =     15.95774  eV     1   --> A'             
     e( 25 - 25) =     16.17403  eV     1   --> A'             
     e( 26 - 26) =     16.65792  eV     1   --> A''            
     e( 27 - 27) =     18.14103  eV     1   --> A''            
     e( 28 - 28) =     19.18331  eV     1   --> A'             
     e( 29 - 29) =     19.55602  eV     1   --> A''            
     e( 30 - 30) =     20.53376  eV     1   --> A'             
     e( 31 - 31) =     21.03137  eV     1   --> A''            
     e( 32 - 32) =     21.15764  eV     1   --> A'             
     e( 33 - 33) =     22.86099  eV     1   --> A'             
     e( 34 - 34) =     24.51472  eV     1   --> A''            
     e( 35 - 35) =     25.61364  eV     1   --> A'             
     e( 36 - 36) =     25.91079  eV     1   --> A'             
     e( 37 - 37) =     27.72280  eV     1   --> A'             
     e( 38 - 38) =     28.54613  eV     1   --> A'             
     e( 39 - 39) =     29.69948  eV     1   --> A'             
     e( 40 - 40) =     29.72041  eV     1   --> A''            

 **************************************************************************

 **************************************************************************

                    xk=(   0.41332,   0.43876,   0.00000  )

     Band symmetry, C_s (m)     point group:

     e(  1 -  1) =    -44.21783  eV     1   --> A'             
     e(  2 -  2) =    -44.20807  eV     1   --> A''            
     e(  3 -  3) =    -20.59636  eV     1   --> A'             
     e(  4 -  4) =    -20.58850  eV     1   --> A'             
     e(  5 -  5) =    -20.56547  eV     1   --> A''            
     e(  6 -  6) =    -20.49793  eV     1   --> A'             
     e(  7 -  7) =    -20.48072  eV     1   --> A''            
     e(  8 -  8) =    -20.46733  eV     1   --> A''            
     e(  9 -  9) =     -0.67739  eV     1   --> A'             
     e( 10 - 10) =     -0.47353  eV     1   --> A'             
     e( 11 - 11) =      5.99759  eV     1   --> A'             
     e( 12 - 12) =      7.03263  eV     1   --> A'             
     e( 13 - 13) =      7.73333  eV     1   --> A''            
     e( 14 - 14) =      8.16589  eV     1   --> A''            
     e( 15 - 15) =      8.43227  eV     1   --> A'             
     e( 16 - 16) =      8.58502  eV     1   --> A'             
     e( 17 - 17) =     12.54031  eV     1   --> A''            
     e( 18 - 18) =     12.59551  eV     1   --> A'             
     e( 19 - 19) =     13.55596  eV     1   --> A''            
     e( 20 - 20) =     14.38416  eV     1   --> A'             
     e( 21 - 21) =     14.85604  eV     1   --> A'             
     e( 22 - 22) =     15.10760  eV     1   --> A''            
     e( 23 - 23) =     15.17294  eV     1   --> A''            
     e( 24 - 24) =     15.96878  eV     1   --> A'             
     e( 25 - 25) =     16.15990  eV     1   --> A'             
     e( 26 - 26) =     16.64161  eV     1   --> A''            
     e( 27 - 27) =     18.07770  eV     1   --> A''            
     e( 28 - 28) =     19.27268  eV     1   --> A'             
     e( 29 - 29) =     19.62131  eV     1   --> A''            
     e( 30 - 30) =     20.61711  eV     1   --> A'             
     e( 31 - 31) =     21.03918  eV     1   --> A''            
     e( 32 - 32) =     21.23450  eV     1   --> A'             
     e( 33 - 33) =     22.80090  eV     1   --> A'             
     e( 34 - 34) =     24.41213  eV     1   --> A''            
     e( 35 - 35) =     25.50381  eV     1   --> A'             
     e( 36 - 36) =     25.81531  eV     1   --> A'             
     e( 37 - 37) =     27.72185  eV     1   --> A'             
     e( 38 - 38) =     28.49996  eV     1   --> A'             
     e( 39 - 39) =     29.62271  eV     1   --> A'             
     e( 40 - 40) =     29.79790  eV     1   --> A''            

 **************************************************************************

 **************************************************************************

                    xk=(   0.40998,   0.44453,   0.00000  )

     Band symmetry, C_s (m)     point group:

     e(  1 -  1) =    -44.21776  eV     1   --> A'             
     e(  2 -  2) =    -44.20797  eV     1   --> A''            
[...]

 **************************************************************************

                    xk=(   0.37000,   0.21362,   0.25043  )

     zone border point and non-symmorphic group 
     symmetry decomposition not available

 **************************************************************************

 **************************************************************************

                    xk=(   0.38000,   0.21939,   0.25043  )

     zone border point and non-symmorphic group 
     symmetry decomposition not available

 **************************************************************************

 **************************************************************************

                    xk=(   0.39000,   0.22517,   0.25043  )

     zone border point and non-symmorphic group 
     symmetry decomposition not available

 **************************************************************************

 **************************************************************************

                    xk=(   0.40000,   0.23094,   0.25043  )

     zone border point and non-symmorphic group 
     symmetry decomposition not available

 **************************************************************************

 **************************************************************************

                    xk=(   0.41000,   0.23671,   0.25043  )

     zone border point and non-symmorphic group 
     symmetry decomposition not available

 **************************************************************************

 **************************************************************************

                    xk=(   0.42000,   0.24249,   0.25043  )

     zone border point and non-symmorphic group 
     symmetry decomposition not available

 **************************************************************************

 **************************************************************************

                    xk=(   0.43000,   0.24826,   0.25043  )

     zone border point and non-symmorphic group 
     symmetry decomposition not available

 **************************************************************************

 **************************************************************************

                    xk=(   0.44000,   0.25403,   0.25043  )

     zone border point and non-symmorphic group 
     symmetry decomposition not available

 **************************************************************************

 **************************************************************************

                    xk=(   0.45000,   0.25981,   0.25043  )

     zone border point and non-symmorphic group 
     symmetry decomposition not available

 **************************************************************************

 **************************************************************************

                    xk=(   0.46000,   0.26558,   0.25043  )

     zone border point and non-symmorphic group 
     symmetry decomposition not available

 **************************************************************************

 **************************************************************************

                    xk=(   0.47000,   0.27135,   0.25043  )

     zone border point and non-symmorphic group 
     symmetry decomposition not available

 **************************************************************************

 **************************************************************************

                    xk=(   0.48000,   0.27713,   0.25043  )

     zone border point and non-symmorphic group 
     symmetry decomposition not available

 **************************************************************************

 **************************************************************************

                    xk=(   0.49000,   0.28290,   0.25043  )

     zone border point and non-symmorphic group 
     symmetry decomposition not available

 **************************************************************************

 **************************************************************************

                    xk=(   0.50000,   0.28868,   0.25043  )

     zone border point and non-symmorphic group 
     symmetry decomposition not available

 **************************************************************************

 **************************************************************************

                    xk=(   0.49667,   0.29445,   0.25043  )

     zone border point and non-symmorphic group 
     symmetry decomposition not available

 **************************************************************************

 **************************************************************************

                    xk=(   0.49333,   0.30022,   0.25043  )

     zone border point and non-symmorphic group 
     symmetry decomposition not available

 **************************************************************************

 **************************************************************************

                    xk=(   0.49000,   0.30599,   0.25043  )

     zone border point and non-symmorphic group 
     symmetry decomposition not available

 **************************************************************************

 **************************************************************************

                    xk=(   0.48666,   0.31176,   0.25043  )

     zone border point and non-symmorphic group 
     symmetry decomposition not available

 **************************************************************************

 **************************************************************************

                    xk=(   0.48333,   0.31754,   0.25043  )

     zone border point and non-symmorphic group 
     symmetry decomposition not available

 **************************************************************************

 **************************************************************************

                    xk=(   0.48000,   0.32331,   0.25043  )

     zone border point and non-symmorphic group 
     symmetry decomposition not available

 **************************************************************************

 **************************************************************************

                    xk=(   0.47666,   0.32908,   0.25043  )

     zone border point and non-symmorphic group 
     symmetry decomposition not available

 **************************************************************************

 **************************************************************************

                    xk=(   0.47333,   0.33485,   0.25043  )

     zone border point and non-symmorphic group 
     symmetry decomposition not available

 **************************************************************************

 **************************************************************************

                    xk=(   0.46999,   0.34063,   0.25043  )

     zone border point and non-symmorphic group 
     symmetry decomposition not available

 **************************************************************************

 **************************************************************************

                    xk=(   0.46666,   0.34640,   0.25043  )

     zone border point and non-symmorphic group 
     symmetry decomposition not available

 **************************************************************************

 **************************************************************************

                    xk=(   0.46333,   0.35217,   0.25043  )

     zone border point and non-symmorphic group 
     symmetry decomposition not available

 **************************************************************************

 **************************************************************************

                    xk=(   0.45999,   0.35794,   0.25043  )

     zone border point and non-symmorphic group 
     symmetry decomposition not available

 **************************************************************************

 **************************************************************************

                    xk=(   0.45666,   0.36372,   0.25043  )

     zone border point and non-symmorphic group 
     symmetry decomposition not available

 **************************************************************************

 **************************************************************************

                    xk=(   0.45332,   0.36949,   0.25043  )

     zone border point and non-symmorphic group 
     symmetry decomposition not available

 **************************************************************************

 **************************************************************************

                    xk=(   0.44999,   0.37526,   0.25043  )

     zone border point and non-symmorphic group 
     symmetry decomposition not available

 **************************************************************************

 **************************************************************************

                    xk=(   0.44666,   0.38103,   0.25043  )

     zone border point and non-symmorphic group 
     symmetry decomposition not available

 **************************************************************************

 **************************************************************************

                    xk=(   0.44332,   0.38681,   0.25043  )

     zone border point and non-symmorphic group 
     symmetry decomposition not available

 **************************************************************************

 **************************************************************************

                    xk=(   0.43999,   0.39258,   0.25043  )

     zone border point and non-symmorphic group 
     symmetry decomposition not available

 **************************************************************************

 **************************************************************************

                    xk=(   0.43665,   0.39835,   0.25043  )

     zone border point and non-symmorphic group 
     symmetry decomposition not available

 **************************************************************************

 **************************************************************************

                    xk=(   0.43332,   0.40412,   0.25043  )

     zone border point and non-symmorphic group 
     symmetry decomposition not available

 **************************************************************************

 **************************************************************************

                    xk=(   0.42999,   0.40989,   0.25043  )

     zone border point and non-symmorphic group 
     symmetry decomposition not available

 **************************************************************************

 **************************************************************************

                    xk=(   0.42665,   0.41567,   0.25043  )

     zone border point and non-symmorphic group 
     symmetry decomposition not available

 **************************************************************************

 **************************************************************************

                    xk=(   0.42332,   0.42144,   0.25043  )

     zone border point and non-symmorphic group 
     symmetry decomposition not available

 **************************************************************************

 **************************************************************************

                    xk=(   0.41998,   0.42721,   0.25043  )

     zone border point and non-symmorphic group 
     symmetry decomposition not available

 **************************************************************************

 **************************************************************************

                    xk=(   0.41665,   0.43298,   0.25043  )

     zone border point and non-symmorphic group 
     symmetry decomposition not available

 **************************************************************************

 **************************************************************************

                    xk=(   0.41332,   0.43876,   0.25043  )

     zone border point and non-symmorphic group 
     symmetry decomposition not available

 **************************************************************************

 **************************************************************************

                    xk=(   0.40998,   0.44453,   0.25043  )

     zone border point and non-symmorphic group 
     symmetry decomposition not available

 **************************************************************************

 **************************************************************************

                    xk=(   0.40665,   0.45030,   0.25043  )

     zone border point and non-symmorphic group 
     symmetry decomposition not available

 **************************************************************************

 **************************************************************************

                    xk=(   0.40331,   0.45607,   0.25043  )

     zone border point and non-symmorphic group 
     symmetry decomposition not available

 **************************************************************************

 **************************************************************************

                    xk=(   0.39998,   0.46185,   0.25043  )

     zone border point and non-symmorphic group 
     symmetry decomposition not available

 **************************************************************************

 **************************************************************************

                    xk=(   0.39665,   0.46762,   0.25043  )

     zone border point and non-symmorphic group 
     symmetry decomposition not available

 **************************************************************************

 **************************************************************************

                    xk=(   0.39331,   0.47339,   0.25043  )

     zone border point and non-symmorphic group 
     symmetry decomposition not available

 **************************************************************************

 **************************************************************************

                    xk=(   0.38998,   0.47916,   0.25043  )

     zone border point and non-symmorphic group 
     symmetry decomposition not available

 **************************************************************************

 **************************************************************************

                    xk=(   0.38664,   0.48493,   0.25043  )

     zone border point and non-symmorphic group 
     symmetry decomposition not available

 **************************************************************************

 **************************************************************************

                    xk=(   0.38331,   0.49071,   0.25043  )

     zone border point and non-symmorphic group 
     symmetry decomposition not available

 **************************************************************************

 **************************************************************************

                    xk=(   0.37998,   0.49648,   0.25043  )

     zone border point and non-symmorphic group 
     symmetry decomposition not available

 **************************************************************************

 **************************************************************************

                    xk=(   0.37664,   0.50225,   0.25043  )

     zone border point and non-symmorphic group 
     symmetry decomposition not available

 **************************************************************************

 **************************************************************************

                    xk=(   0.37331,   0.50802,   0.25043  )

     zone border point and non-symmorphic group 
     symmetry decomposition not available

 **************************************************************************

 **************************************************************************

                    xk=(   0.36997,   0.51380,   0.25043  )

     zone border point and non-symmorphic group 
     symmetry decomposition not available

 **************************************************************************

 **************************************************************************

                    xk=(   0.36664,   0.51957,   0.25043  )

     zone border point and non-symmorphic group 
     symmetry decomposition not available

 **************************************************************************

 **************************************************************************

                    xk=(   0.36331,   0.52534,   0.25043  )

     zone border point and non-symmorphic group 
     symmetry decomposition not available

 **************************************************************************

 **************************************************************************

                    xk=(   0.35997,   0.53111,   0.25043  )

     zone border point and non-symmorphic group 
     symmetry decomposition not available

 **************************************************************************

 **************************************************************************

                    xk=(   0.35664,   0.53689,   0.25043  )

     zone border point and non-symmorphic group 
     symmetry decomposition not available

 **************************************************************************

 **************************************************************************

                    xk=(   0.35330,   0.54266,   0.25043  )

     zone border point and non-symmorphic group 
     symmetry decomposition not available

 **************************************************************************

 **************************************************************************

                    xk=(   0.34997,   0.54843,   0.25043  )

     zone border point and non-symmorphic group 
     symmetry decomposition not available

 **************************************************************************

 **************************************************************************

                    xk=(   0.34664,   0.55420,   0.25043  )

     zone border point and non-symmorphic group 
     symmetry decomposition not available

 **************************************************************************

 **************************************************************************

                    xk=(   0.34330,   0.55998,   0.25043  )

     zone border point and non-symmorphic group 
     symmetry decomposition not available

 **************************************************************************

 **************************************************************************

                    xk=(   0.33997,   0.56575,   0.25043  )

     zone border point and non-symmorphic group 
     symmetry decomposition not available

 **************************************************************************

 **************************************************************************

                    xk=(   0.33663,   0.57152,   0.25043  )

     zone border point and non-symmorphic group 
     symmetry decomposition not available

 **************************************************************************

 **************************************************************************

                    xk=(   0.33330,   0.57729,   0.25043  )

     zone border point and non-symmorphic group 
     symmetry decomposition not available

 **************************************************************************

     BANDS        :   5m59.05s CPU  10m34.35s WALL


   This run was terminated on:  12:29:46   2Oct2023            

=------------------------------------------------------------------------------=
   JOB DONE.
=------------------------------------------------------------------------------=
